# vtk DataFile Version 4.2
vtk output
ASCII
DATASET POLYDATA
POINTS 44474 float
-3.53921 -25.5364 13.3096 -3.28968 -25.57 13.1835 -3.46085 -25.286 12.9334 
-3.33686 -25.7523 13.5415 -3.29092 -25.1746 12.5946 -3.58663 -25.1061 12.7965 
-3.46887 -25.8905 13.8276 -3.25663 -25.8533 13.6301 -3.15542 -25.4934 12.9118 
-3.4522 -24.9693 12.4909 -3.76752 -25.1739 12.968 -3.60324 -25.7672 13.6811 
-3.39855 -25.982 13.9122 -3.16163 -25.8091 13.4307 -3.1545 -25.3377 12.6409 
-3.40259 -24.7435 12.1305 -3.73525 -24.4731 12.1421 -3.83044 -24.8952 12.6999 
-3.90362 -25.2902 13.1521 -3.69609 -25.692 13.6058 -3.58832 -25.917 13.9064 
-3.58311 -26.0437 14.0764 -3.47058 -26.1878 14.3124 -3.15376 -26.0221 13.8193 
-3.06117 -25.631 13.003 -3.1788 -25.1214 12.3818 -3.2642 -24.8557 12.1218 
-3.96381 -24.964 12.8473 -3.82038 -25.558 13.437 -3.79806 -25.8056 13.7614 
-3.71472 -25.9113 13.8796 -3.27777 -26.2476 14.3314 -3.14245 -26.1828 14.111 
-3.02515 -26.0189 13.6556 -3.02186 -25.8814 13.3545 -3.01119 -25.3531 12.4298 
-3.12638 -25.1589 12.3438 -3.20887 -24.6596 11.7546 -3.39246 -24.4676 11.7612 
-3.95307 -24.4436 12.2541 -4.14947 -24.7714 12.7198 -4.13158 -25.075 13.0116 
-4.13252 -25.2991 13.2349 -4.17946 -25.8404 13.8324 -4.07351 -26.1844 14.3024 
-3.32169 -26.4666 14.7135 -2.92198 -26.4747 14.3235 -2.95322 -25.7627 13.0036 
-2.90015 -25.4955 12.4476 -3.18009 -25.001 12.1678 -3.18995 -24.7825 11.9155 
-3.78329 -24.144 11.7783 -3.90465 -24.1908 11.9346 -4.23159 -24.3872 12.3478 
-4.23601 -25.5473 13.518 -4.2684 -25.6386 13.6397 -4.10325 -25.9572 13.9674 
-3.75141 -26.2617 14.4268 -3.20136 -26.3571 14.4521 -2.97686 -26.5122 14.5134 
-2.88221 -26.3033 13.9127 -2.93875 -25.9983 13.4306 -2.93303 -25.5754 12.6383 
-2.90872 -25.4051 12.2687 -3.11147 -24.9736 12.0553 -3.0179 -24.9303 11.853 
-3.13807 -24.5815 11.5578 -3.68724 -24.0275 11.5038 -4.1057 -24.2061 12.077 
-4.48051 -24.4076 12.4761 -4.49397 -24.6365 12.7276 -4.69947 -25.3185 13.4209 
-4.48944 -25.7318 13.8119 -4.23823 -26.013 14.0936 -3.8804 -26.3591 14.5981 
-3.18753 -26.4954 14.7142 -2.86049 -26.6879 14.5989 -2.83603 -25.9359 13.0038 
-2.81559 -25.8228 12.7124 -2.822 -25.5534 12.2846 -2.8352 -25.3849 12.0986 
-3.31915 -24.3708 11.5175 -3.92881 -23.8783 11.5512 -4.00672 -24.075 11.8511 
-4.23957 -24.0273 11.9653 -4.67435 -24.6714 12.8146 -4.52506 -25.2195 13.2723 
-4.48274 -25.5373 13.5917 -4.55699 -25.8963 14.019 -4.35822 -25.9368 14.0187 
-4.37357 -26.1081 14.2679 -4.1302 -26.323 14.5785 -3.44855 -26.5441 14.9006 
-3.21452 -26.6464 15.0142 -3.09619 -26.5672 14.7728 -2.95104 -26.6504 14.7038 
-2.77707 -26.5336 14.0382 -2.83856 -26.083 13.2586 -2.76804 -25.7593 12.4552 
-2.98002 -24.8693 11.702 -4.11843 -24.0142 11.8702 -4.51493 -24.1839 12.2574 
-4.73564 -25.0111 13.1381 -5.11538 -25.013 13.283 -4.57165 -25.5645 13.6412 
-4.80451 -25.7548 13.9704 -4.36275 -26.0289 14.1289 -4.4335 -26.2309 14.5001 
-3.63118 -26.5065 14.8812 -3.1466 -26.666 14.9751 -2.91775 -26.7571 14.9281 
-2.73283 -26.7826 14.4187 -2.79905 -26.2477 13.5179 -2.77764 -26.103 13.0651 
-2.76759 -26.0157 12.9333 -2.69705 -26.0522 12.6604 -2.72062 -25.7587 12.3838 
-2.83406 -25.2301 11.9348 -4.53033 -23.7808 11.7764 -4.7251 -24.4219 12.5845 
-5.02925 -24.9067 13.1413 -5.1416 -25.147 13.4322 -5.21035 -25.2156 13.5416 
-5.0381 -25.4356 13.7312 -4.81673 -25.8272 14.0834 -4.63735 -26.0549 14.2661 
-4.63022 -26.1414 14.4443 -4.3653 -26.286 14.5995 -4.04527 -26.4357 14.7709 
-3.61615 -26.7219 15.3027 -3.31992 -26.6432 15.0576 -3.14769 -26.8262 15.3358 
-3.02293 -26.7753 15.1119 -3.02117 -26.6862 14.9314 -2.81131 -26.8127 14.7847 
-2.77217 -26.7502 14.4958 -2.73502 -26.6833 14.1061 -2.76752 -26.2691 13.3422 
-2.65898 -26.2814 12.8394 -2.6587 -25.9941 12.5444 -2.73292 -25.5859 12.2153 
-2.74133 -25.3885 12.0593 -4.32435 -23.9009 11.8534 -4.89719 -24.2185 12.3838 
-5.38005 -24.8789 13.2257 -5.15125 -25.5777 13.9634 -4.65491 -26.2278 14.5925 
-4.49592 -26.3645 14.7747 -4.17506 -26.3538 14.6328 -3.27404 -26.7681 15.2802 
-3.02173 -26.9052 15.3967 -2.87841 -26.8702 15.0319 -2.73138 -26.9971 14.8954 
-2.68333 -27.0642 14.7716 -2.71117 -26.6581 13.9097 -2.66445 -26.586 13.5038 
-2.73917 -26.2247 13.1474 -2.57789 -26.3837 12.7981 -2.63945 -25.7272 12.3085 
-4.92156 -23.9886 12.107 -5.14589 -24.4119 12.6516 -5.25628 -24.6466 12.9345 
-5.50705 -24.6986 13.0617 -5.36582 -25.0279 13.3754 -5.4621 -25.2806 13.769 
-5.00798 -25.7806 14.1268 -4.85537 -25.8821 14.1979 -4.87782 -26.0515 14.4488 
-4.83451 -26.132 14.5608 -4.34392 -26.3793 14.767 -4.22663 -26.5368 15.1153 
-3.89221 -26.6952 15.3275 -3.39591 -26.8307 15.464 -3.25709 -26.9067 15.597 
-3.1333 -27.0756 15.8862 -2.95273 -26.9012 15.2768 -2.81744 -26.946 15.0496 
-2.7043 -26.973 14.7381 -2.69569 -26.8289 14.2542 -2.67258 -26.3579 13.0016 
-2.63063 -26.5387 12.9829 -2.48107 -26.2029 12.6311 -4.67372 -23.7795 11.8049 
-5.40787 -24.2547 12.476 -5.56258 -24.893 13.316 -5.37618 -25.1558 13.544 
-5.73161 -25.136 13.7507 -5.4642 -25.6042 14.2116 -4.97522 -25.9086 14.287 
-4.89181 -26.275 14.8734 -4.66773 -26.3252 14.8034 -4.42557 -26.5402 15.187 
-3.89201 -26.849 15.6405 -3.5397 -26.8513 15.5055 -2.95325 -27.0312 15.6038 
-2.89771 -27.0016 15.4841 -2.77398 -27.2242 15.7177 -2.67155 -26.9885 14.5169 
-2.63732 -26.9214 13.8858 -2.64953 -26.7766 13.6342 -2.6374 -26.5829 13.1963 
-2.52548 -26.9773 13.0634 -2.44666 -26.5017 12.816 -4.82282 -23.7345 11.7506 
-5.35936 -24.1365 12.3131 -5.49688 -24.3552 12.649 -5.48311 -24.4913 12.8078 
-5.83533 -24.8146 13.3695 -5.65305 -25.072 13.5918 -5.11839 -25.9876 14.5347 
-4.94696 -26.0836 14.5832 -5.10161 -26.1293 14.7638 -4.71858 -26.3941 15.0104 
-3.9974 -26.7598 15.4728 -3.40292 -26.9405 15.7078 -3.24502 -27.0177 15.8163 
-3.17344 -27.2647 16.415 -2.70458 -27.2786 15.4934 -2.6322 -27.2789 15.0802 
-2.67078 -27.017 14.3044 -2.64056 -27.0891 14.0939 -2.57213 -26.8861 13.1313 
-2.52112 -26.6558 12.8841 -2.3832 -26.3436 12.7219 -5.61321 -24.2344 12.4424 
-5.69674 -24.5727 12.9616 -5.71576 -24.9459 13.4781 -5.8778 -25.0903 13.8065 
-5.34413 -25.8105 14.4279 -5.09354 -26.249 14.9658 -4.69471 -26.4868 15.193 
-4.28578 -26.7032 15.4433 -3.76836 -26.9455 15.8073 -3.21593 -27.0889 16.0232 
-3.21893 -27.2075 16.3146 -2.98571 -27.1736 16.0225 -2.87413 -27.1791 15.8484 
-2.80064 -27.3015 15.997 -2.68648 -27.3462 15.6562 -2.62149 -27.4031 15.3662 
-2.63615 -27.1553 14.4152 -2.58876 -27.2553 13.799 -2.58624 -27.0025 13.5865 
-2.61793 -26.7645 13.3179 -2.58699 -26.7096 13.1738 -2.49054 -27.2719 13.174 
-2.44679 -26.9784 13.0037 -2.24509 -26.634 12.8558 -2.17856 -26.3195 12.6587 
-5.05874 -23.6997 11.6815 -5.48203 -24.0869 12.2122 -5.84632 -24.3195 12.6111 
-5.89868 -24.6834 13.2195 -6.09376 -24.7697 13.4509 -6.01822 -25.1116 13.9425 
-5.81138 -25.4435 14.284 -5.34025 -25.9503 14.7006 -5.29385 -26.0812 14.8459 
-4.98741 -26.3521 15.1116 -4.84953 -26.4155 15.1782 -4.17971 -26.8297 15.7362 
-3.93571 -26.9498 15.9117 -3.3302 -27.0547 15.9561 -3.31947 -27.2429 16.4395 
-2.96049 -27.2866 16.2574 -2.72129 -27.4814 16.1096 -2.66401 -27.4294 15.6715 
-2.59964 -27.5901 15.2672 -2.56997 -27.4824 14.5683 -2.60907 -27.2965 14.2809 
-2.5936 -27.299 14.0027 -2.58466 -26.9489 13.2877 -2.55227 -27.1397 13.2771 
-2.44929 -27.1721 13.1014 -2.20972 -27.0493 12.9777 -2.20715 -26.9348 12.9282 
-2.14077 -26.5674 12.8115 -5.72943 -24.1036 12.1949 -6.00994 -24.2825 12.5263 
-5.67584 -24.4057 12.7333 -5.9677 -24.5455 13.0392 -6.10199 -24.8936 13.6703 
-5.74989 -25.6684 14.6119 -5.46302 -25.8562 14.6792 -5.19183 -26.3222 15.2149 
-4.81591 -26.5045 15.3133 -4.71267 -26.5608 15.3409 -4.37162 -26.7399 15.6064 
-3.71288 -27.0691 16.1066 -3.40487 -27.1687 16.2459 -3.3358 -27.3358 16.7721 
-3.12796 -27.3236 16.5439 -2.85925 -27.4607 16.5242 -2.74469 -27.6757 16.6158 
-2.62239 -27.5097 15.6519 -2.58757 -27.6504 15.5562 -2.53723 -27.5728 14.0451 
-2.56107 -27.253 13.6223 -2.53255 -27.3557 13.4185 -2.33968 -27.4307 13.1401 
-5.46899 -23.985 12.0641 -5.80227 -24.2308 12.426 -6.12166 -24.3338 12.6063 
-6.00791 -24.4551 12.8794 -6.04197 -24.6198 13.1745 -6.27682 -24.8012 13.6921 
-6.30933 -24.8829 13.8833 -6.07254 -25.2857 14.2981 -5.37175 -26.1153 15.0024 
-4.93893 -26.4649 15.2914 -4.54081 -26.6587 15.4787 -4.42753 -26.7584 15.7655 
-4.25029 -26.8807 15.8708 -3.95566 -27.0038 16.0742 -3.41262 -27.2124 16.4069 
-3.4562 -27.3169 16.8595 -2.9865 -27.3853 16.5366 -2.78859 -27.5908 16.64 
-2.69838 -27.5935 16.2192 -2.56468 -27.8127 15.4585 -2.54358 -27.5963 14.4185 
-2.54079 -27.5346 14.1763 -2.52801 -27.4795 13.8002 -2.55472 -27.321 13.5479 
-2.50387 -27.4549 13.4389 -2.34329 -27.5143 13.2064 -2.19849 -27.3836 13.0551 
-2.02012 -26.9674 12.8214 -1.99682 -26.5481 12.7397 -5.30451 -23.7495 11.6894 
-5.98782 -24.0378 11.9949 -6.10305 -24.157 12.2161 -6.39559 -24.2806 12.3821 
-6.21697 -24.5799 13.1783 -6.2077 -24.6837 13.3926 -6.15582 -25.2914 14.4497 
-5.58111 -25.9601 15.0007 -5.49571 -26.133 15.2231 -5.18241 -26.3953 15.3297 
-4.88018 -26.5269 15.4653 -4.78631 -26.6315 15.5939 -4.57242 -26.7291 15.7056 
-4.1615 -26.9937 16.1457 -3.76808 -27.13 16.2995 -3.25955 -27.4261 16.9358 
-3.10555 -27.4645 16.8178 -2.92859 -27.4133 16.492 -2.84635 -27.6171 16.8444 
-2.77351 -27.7201 16.7855 -2.70257 -27.8506 16.7245 -2.64789 -27.6394 15.8453 
-2.61174 -27.8096 15.8766 -2.55907 -27.833 15.2961 -2.55409 -27.6526 14.8726 
-2.5088 -27.786 14.1248 -2.48125 -27.5255 13.7616 -2.50079 -27.5 13.601 
-2.46611 -27.3994 13.2702 -2.19817 -27.5127 13.1318 -2.00289 -27.1586 12.8652 
-1.93852 -26.6044 12.7118 -5.73604 -23.9049 11.8371 -6.67338 -24.4354 12.7998 
-6.59803 -24.4845 13.0019 -6.50125 -24.7793 13.8806 -6.38219 -24.944 14.0746 
-6.10835 -25.4864 14.7643 -6.03476 -25.8425 15.3533 -5.05482 -26.5356 15.6461 
-4.69319 -26.7274 15.7865 -4.55787 -26.8216 15.9926 -4.36917 -26.8916 16.0272 
-4.21136 -27.0547 16.3024 -4.0765 -27.157 16.5016 -3.78074 -27.2748 16.7733 
-3.63854 -27.3246 16.9858 -3.4385 -27.3666 17.0183 -2.94465 -27.5065 16.8015 
-2.74546 -27.8755 16.8173 -2.68332 -27.9109 16.6133 -2.69154 -27.7155 16.1253 
[...]
POINT_DATA 44474
SCALARS UniversalID int
LOOKUP_TABLE default
26 26 26 26 26 26 26 26 26 
26 26 26 26 26 26 26 26 26 
26 26 26 26 26 26 26 26 26 
26 26 26 26 26 26 26 26 26 
26 26 26 26 26 26 26 26 26 
26 26 26 26 26 26 26 26 26 
26 26 26 26 26 26 26 26 26 
26 26 26 26 26 26 26 26 26 
26 26 26 26 26 26 26 26 26 
26 26 26 26 26 26 26 26 26 
26 26 26 26 26 26 26 26 25 
26 26 26 26 26 26 26 26 26 
26 26 26 26 26 26 26 25 25 
26 26 26 26 26 26 26 26 26 
26 26 26 26 26 26 26 26 26 
26 26 26 25 25 26 26 26 26 
26 26 26 26 26 26 26 26 26 
26 26 26 26 25 25 26 26 26 
26 26 26 26 26 26 26 26 26 
26 26 26 26 26 26 26 26 26 
25 25 26 26 26 26 26 26 26 
26 26 26 26 26 26 26 26 26 
26 26 26 25 25 26 26 26 26 
26 26 26 26 26 26 26 26 26 
26 26 26 26 26 25 25 25 26 
26 26 26 26 26 26 26 26 26 
26 26 26 26 26 26 26 26 26 
26 26 25 25 25 25 26 26 26 
26 26 26 26 26 26 26 26 26 
26 26 26 26 26 26 26 26 26 
26 26 25 25 25 25 25 26 26 
26 26 26 26 26 26 26 26 26 
26 26 26 26 26 26 26 26 25 
26 25 25 26 26 26 26 26 26 
26 26 26 26 26 26 26 26 26 
26 26 26 26 24 25 25 25 25 
25 25 25 25 25 26 26 26 26 
26 26 26 26 26 26 26 26 26 
26 26 26 26 26 26 26 26 26 
26 24 24 25 25 25 25 25 25 
25 26 26 26 26 26 26 26 26 
26 26 26 26 26 26 26 26 26 
26 26 26 26 24 25 25 25 25 
25 25 25 25 25 26 26 26 26 
26 26 26 26 26 26 26 26 26 
26 26 26 26 26 26 26 26 26 
24 24 24 25 25 25 25 26 26 
26 26 26 26 26 26 26 26 26 
26 26 26 26 26 26 26 26 26 
26 26 26 26 26 26 26 26 25 
24 24 25 25 25 25 25 25 25 
25 25 25 26 26 26 26 26 26 
26 26 26 26 26 26 26 26 26 
26 26 26 26 26 26 26 26 26 
24 24 25 25 25 25 25 25 25 
26 26 26 26 26 26 26 26 26 
26 26 26 26 26 26 26 26 26 
26 26 26 26 26 26 25 25 25 
25 25 25 25 25 25 25 26 26 
26 26 26 26 26 26 26 26 26 
26 26 26 26 26 26 26 26 26 
26 26 26 26 26 26 24 25 25 
25 25 25 25 25 25 25 25 25 
26 26 26 26 26 26 26 26 26 
26 26 26 26 26 26 26 26 26 
26 26 26 26 26 26 26 25 25 
25 25 25 25 25 25 25 25 25 
26 26 26 26 26 26 26 26 26 
26 26 26 26 26 26 26 26 26 
26 26 26 26 26 26 26 26 24 
24 25 25 25 25 25 25 25 25 
25 25 25 25 27 27 26 26 26 
26 26 26 26 26 26 26 26 26 
26 26 26 26 26 26 26 26 26 
26 26 26 26 26 26 24 24 25 
25 25 25 25 25 25 25 25 25 
25 25 27 27 26 26 26 26 26 
26 26 26 26 26 26 26 26 26 
26 26 26 26 26 26 26 26 26 
26 24 24 25 25 25 25 25 25 
25 25 25 25 27 27 26 26 26 
26 26 26 26 26 26 26 26 26 
26 26 26 26 26 26 26 26 26 
26 26 26 26 25 25 25 25 25 
25 25 25 25 25 25 25 25 25 
25 27 27 27 27 27 27 26 26 
26 26 26 26 26 26 26 26 26 
26 26 26 26 26 26 26 26 26 
26 26 24 25 25 25 25 25 25 
25 25 25 25 25 25 25 27 27 
27 27 27 26 26 26 26 26 26 
26 26 26 26 26 26 26 26 26 
26 26 26 26 26 26 26 25 25 
25 25 25 25 25 25 25 25 25 
25 25 27 27 27 27 27 27 26 
26 26 26 26 26 26 26 26 26 
26 26 26 26 26 26 26 26 25 
25 25 25 25 25 25 25 25 25 
25 25 25 25 27 27 27 27 27 
27 26 26 26 26 26 26 26 26 
26 26 26 26 26 26 26 26 26 
26 26 26 26 26 26 26 26 26 
25 25 25 25 25 25 25 25 25 
25 25 25 25 25 27 27 27 27 
27 27 27 27 26 26 26 26 26 
26 26 26 26 26 26 26 26 26 
26 26 26 26 26 26 26 26 26 
26 25 25 25 25 25 25 25 25 
25 25 25 25 25 25 25 25 27 
27 27 27 27 27 27 27 26 27 
26 26 26 26 26 26 26 26 26 
26 26 26 26 26 26 26 26 26 
26 26 26 26 26 25 25 25 25 
25 25 25 25 25 25 25 25 25 
25 25 25 25 25 25 27 27 27 
27 27 27 27 27 26 27 26 26 
26 26 26 26 26 26 26 26 26 
26 26 26 26 26 26 26 26 26 
26 25 25 25 25 25 25 25 25 
25 25 25 25 25 25 25 25 25 
25 27 27 27 27 27 27 27 27 
27 27 26 26 26 26 26 26 26 
26 26 26 26 26 26 26 26 26 
26 26 26 26 26 26 26 26 26 
25 25 25 25 25 25 25 25 25 
25 25 25 25 25 25 25 25 25 
25 25 25 27 27 27 27 27 27 
27 27 27 27 26 26 26 26 26 
26 26 26 26 26 26 26 26 26 
26 26 26 25 25 25 25 25 25 
25 25 25 25 25 25 25 25 25 
25 25 25 25 25 25 25 25 27 
27 27 27 27 27 27 27 27 27 
27 27 26 26 26 26 26 26 26 
26 26 26 26 26 26 26 26 26 
26 26 26 26 26 26 26 26 25 
25 25 25 25 25 25 25 25 25 
25 25 25 25 25 25 25 25 25 
25 25 25 27 27 27 27 27 27 
27 27 27 26 26 26 26 26 26 
26 26 26 26 26 26 26 26 26 
26 26 26 25 25 25 25 25 25 
25 25 25 25 25 25 25 25 25 
25 25 25 27 27 27 27 27 27 
27 27 26 26 26 26 26 26 26 
26 26 26 26 26 26 26 26 26 
26 26 26 26 26 26 26 26 25 
25 25 25 25 25 25 25 25 25 
25 25 25 25 25 25 25 25 25 
25 25 27 27 27 27 27 27 27 
27 27 27 27 27 27 26 26 26 
26 26 26 26 26 26 26 26 26 
26 26 26 26 25 25 25 25 25 
25 25 25 25 25 25 25 25 25 
25 25 25 25 25 25 25 25 25 
25 25 25 27 27 27 27 27 27 
27 27 27 27 27 27 26 26 26 
26 26 26 26 26 26 26 26 26 
26 26 26 26 26 26 25 25 25 
25 25 25 25 25 25 25 25 25 
25 25 25 25 25 27 27 27 27 
27 27 27 27 27 27 27 27 27 
26 26 26 26 26 26 26 26 26 
26 26 26 26 26 26 26 26 26 
26 26 26 25 25 25 25 25 25 
25 25 25 25 25 25 25 25 25 
25 25 25 25 25 25 25 25 25 
25 27 27 27 27 27 27 27 27 
27 27 27 27 27 27 27 26 26 
26 26 26 26 26 26 26 26 26 
26 26 26 26 26 26 26 26 25 
25 25 25 25 25 25 25 25 25 
25 25 25 25 25 25 25 25 25 
25 25 25 25 25 25 27 27 27 
27 27 27 27 27 27 27 27 27 
27 27 27 26 26 26 26 26 26 
26 26 26 26 26 26 26 26 26 
26 26 26 26 26 25 25 25 25 
25 25 25 25 25 25 25 25 25 
25 25 25 25 25 25 25 25 25 
25 25 25 25 25 25 25 27 27 
27 27 27 27 27 27 27 27 27 
27 27 27 27 27 27 26 26 26 
26 26 26 26 26 26 26 26 26 
26 26 26 26 26 26 25 25 25 
25 25 25 25 25 25 25 25 25 
25 25 25 25 25 25 25 25 25 
25 25 25 25 25 25 25 25 25 
27 27 27 27 27 27 27 27 27 
27 27 27 27 27 27 27 27 27 
27 27 27 26 26 26 26 26 26 
26 26 26 26 26 26 26 26 26 
25 25 25 25 25 25 25 25 25 
25 25 25 25 25 25 25 25 25 
25 25 25 25 25 25 25 25 27 
27 27 27 27 27 27 27 27 27 
27 27 26 26 26 26 26 26 26 
26 26 26 26 26 26 26 26 26 
26 26 26 26 26 26 25 25 25 
25 25 25 25 25 25 25 25 25 
25 25 25 25 25 25 25 25 25 
25 25 25 25 25 25 25 25 25 
27 27 27 27 27 27 27 27 27 
27 27 27 27 27 27 27 27 27 
27 27 27 27 27 26 26 26 26 
26 26 26 26 26 26 26 26 26 
26 26 26 26 26 26 26 26 25 
25 25 25 25 25 25 25 25 25 
25 25 25 25 25 25 25 25 25 
25 25 25 25 25 25 25 25 25 
25 27 27 27 27 27 27 27 27 
27 27 27 27 27 27 27 26 26 
26 26 26 26 26 26 26 26 26 
26 26 26 26 26 26 26 26 26 
25 25 25 25 25 25 25 25 25 
25 25 25 25 25 25 25 25 25 
25 25 25 25 25 25 25 25 25 
25 25 25 27 27 27 27 27 27 
27 27 27 27 27 27 27 27 27 
27 27 27 27 27 26 26 26 26 
26 26 26 26 26 26 26 26 26 
26 26 26 26 26 26 26 25 25 
25 25 25 25 25 25 25 25 25 
25 25 25 25 25 25 25 25 25 
25 25 25 25 25 25 25 25 25 
27 27 27 27 27 27 27 27 27 
27 27 27 27 27 27 27 27 27 
27 27 26 26 26 26 26 26 26 
26 26 26 26 26 26 26 26 26 
26 26 26 26 26 26 25 25 25 
25 25 25 25 25 25 25 25 25 
25 25 25 25 25 25 25 25 25 
25 25 25 25 25 25 25 25 25 
24 24 24 24 25 27 27 27 27 
27 27 27 27 27 27 27 27 27 
27 27 27 27 27 27 27 27 27 
27 27 27 26 26 26 26 26 26 
26 26 26 26 26 26 26 26 26 
26 26 25 25 25 25 25 25 25 
25 25 25 25 25 25 25 25 25 
25 25 25 25 25 25 25 25 25 
25 25 25 25 25 25 25 25 25 
25 25 24 24 24 24 27 27 27 
27 27 27 27 27 27 27 27 27 
27 27 27 27 27 27 27 27 27 
26 26 26 26 26 26 26 26 26 
26 26 26 26 26 26 26 26 26 
26 25 25 25 25 25 25 25 25 
25 25 25 25 25 25 25 25 25 
25 25 25 25 25 24 24 24 24 
24 24 24 24 27 27 27 27 27 
27 27 27 27 27 27 27 27 27 
27 27 27 27 27 27 27 27 27 
26 26 26 26 26 26 26 26 26 
26 26 26 26 26 26 26 26 26 
26 26 26 26 26 26 25 25 25 
25 25 25 25 25 25 25 25 25 
25 25 25 25 25 25 25 25 25 
25 25 25 25 25 25 25 25 25 
25 25 25 25 25 24 24 24 24 
24 24 24 27 27 27 27 27 27 
27 27 27 27 27 27 27 27 27 
27 27 27 27 27 27 27 27 27 
27 27 26 26 26 26 26 26 26 
26 26 26 26 26 26 26 26 26 
26 26 26 25 25 25 25 25 25 
25 25 25 25 25 25 25 25 25 
25 25 25 25 25 25 25 25 25 
25 24 24 24 24 24 24 24 24 
24 24 24 27 27 27 27 27 27 
27 27 27 27 27 27 27 27 27 
27 27 27 27 27 27 26 26 26 
26 26 26 26 26 26 26 26 26 
26 26 26 26 26 26 25 25 25 
25 25 25 25 25 25 25 25 25 
25 25 25 25 25 25 25 25 25 
25 25 25 25 25 25 25 24 24 
24 24 24 24 24 24 24 24 27 
27 27 27 27 27 27 27 27 27 
27 27 27 27 27 27 27 27 27 
27 27 27 27 27 27 27 27 27 
27 27 27 27 27 27 27 27 26 
26 26 26 26 26 26 26 26 26 
26 26 26 26 26 26 26 26 25 
25 25 25 25 25 25 25 25 25 
25 25 25 25 25 25 25 25 25 
25 25 25 25 25 25 25 25 25 
25 25 25 24 24 24 24 24 24 
24 24 24 24 24 24 24 24 27 
27 27 27 27 27 27 27 27 27 
27 27 27 27 27 27 27 27 27 
27 27 27 27 27 27 27 27 27 
26 26 26 26 26 26 26 26 26 
26 26 26 26 26 26 26 26 26 
25 25 25 25 25 25 25 25 25 
25 25 25 25 25 25 25 25 25 
25 25 25 25 25 25 25 24 24 
24 24 24 24 24 24 24 27 27 
27 27 27 27 27 27 27 27 27 
27 27 27 27 27 27 27 27 27 
27 27 27 27 27 27 27 27 27 
27 27 27 27 26 26 26 26 26 
26 26 26 26 26 26 26 26 26 
26 26 26 26 26 26 26 25 25 
25 25 25 25 25 25 25 25 25 
25 25 25 25 25 25 25 25 25 
25 25 25 25 25 25 24 24 24 
24 24 24 24 24 24 24 24 24 
24 27 27 27 27 27 27 27 27 
27 27 27 27 27 27 27 27 27 
27 27 27 27 27 27 27 27 27 
27 27 27 27 27 27 26 26 26 
26 26 26 26 26 26 26 26 26 
26 26 26 26 26 26 26 25 25 
25 25 25 25 25 25 25 25 25 
25 25 25 25 25 25 25 25 25 
25 25 25 25 25 25 25 25 25 
24 24 24 24 24 24 24 24 27 
27 27 27 27 27 27 27 27 27 
27 27 27 27 27 27 27 27 27 
27 27 27 27 27 27 27 27 27 
27 27 27 26 26 26 26 26 26 
26 26 26 26 26 26 26 26 26 
26 26 26 26 25 25 25 25 25 
25 25 25 25 25 25 25 25 25 
25 25 25 25 25 25 25 25 25 
25 24 25 25 25 25 24 24 24 
24 24 24 24 24 24 24 24 24 
24 24 27 27 27 27 27 27 27 
27 27 27 27 27 27 27 27 27 
27 27 27 27 27 27 27 27 27 
27 27 27 27 27 27 27 27 27 
27 27 26 26 26 26 26 26 26 
26 26 26 26 26 26 26 26 26 
26 26 26 26 25 25 25 25 25 
25 25 25 25 25 25 25 25 25 
25 25 25 25 25 25 25 25 25 
25 25 25 25 25 25 25 25 24 
24 25 25 24 24 24 24 24 24 
24 24 24 24 24 27 27 27 27 
27 27 27 27 27 27 27 27 27 
27 27 27 27 27 27 27 27 27 
27 27 27 27 27 27 27 27 27 
26 26 26 26 26 26 26 26 26 
26 26 26 26 26 26 26 26 26 
26 26 26 25 25 25 25 25 25 
25 25 25 25 25 25 25 25 25 
25 25 25 24 24 24 24 24 24 
24 24 24 24 24 24 24 24 24 
24 24 24 24 24 27 27 27 27 
27 27 27 27 27 27 27 27 27 
27 27 27 27 27 27 27 27 27 
27 27 27 27 27 27 27 27 27 
27 27 27 27 27 27 26 26 26 
26 26 26 26 26 26 26 26 26 
26 26 26 26 26 26 26 26 26 
25 25 25 25 25 25 25 25 25 
25 25 25 25 25 25 25 25 25 
25 25 25 25 25 25 25 24 24 
24 24 24 24 24 24 24 24 24 
24 24 24 24 24 24 27 27 27 
27 27 27 27 27 27 27 27 27 
27 27 27 27 27 27 27 27 27 
27 27 27 27 27 27 27 27 27 
27 27 27 27 27 27 26 26 26 
26 26 26 26 26 26 26 26 26 
26 26 26 26 26 25 25 25 25 
25 25 25 25 25 25 25 25 25 
25 25 25 25 25 25 25 24 24 
24 24 24 24 24 24 24 24 24 
24 24 24 24 24 24 27 27 27 
27 27 27 27 27 27 27 27 27 
27 27 27 27 27 27 27 27 27 
27 27 27 27 27 27 27 27 27 
27 27 27 27 27 27 27 27 27 
27 27 26 26 26 26 26 26 26 
26 26 26 26 26 26 26 26 25 
25 25 25 25 25 25 25 25 25 
25 25 25 25 25 25 25 25 25 
25 25 25 25 25 25 25 24 24 
24 24 24 24 24 24 24 24 24 
24 24 24 24 24 24 24 24 24 
24 27 27 27 27 27 27 27 27 
27 27 27 27 27 27 27 27 27 
27 27 27 27 27 27 27 27 27 
27 27 27 27 27 27 27 27 27 
27 27 27 26 26 26 26 26 26 
26 26 26 26 26 26 26 26 26 
26 26 26 26 26 25 25 25 25 
25 25 25 25 25 25 25 25 25 
25 25 25 25 25 25 25 25 25 
25 25 25 25 24 24 24 24 24 
24 24 24 24 24 24 24 24 24 
24 24 24 24 27 27 27 27 27 
27 27 27 27 27 27 27 27 27 
27 27 27 27 27 27 27 27 27 
27 27 27 27 27 27 27 27 27 
27 27 27 26 26 26 26 26 26 
26 26 26 26 26 26 26 26 26 
26 25 25 25 25 25 25 25 25 
25 25 25 25 25 25 25 25 25 
25 25 25 25 25 25 25 25 25 
25 25 25 24 24 24 24 24 24 
24 24 24 24 24 24 24 24 24 
24 24 24 24 24 24 27 27 27 
27 27 27 27 27 27 27 27 27 
27 27 27 27 27 27 27 27 27 
27 27 27 27 27 27 27 27 27 
27 27 27 27 27 26 26 26 26 
26 26 26 26 26 26 26 26 26 
26 26 26 25 25 25 25 25 25 
25 25 25 25 25 25 25 25 25 
25 25 25 25 25 25 25 25 25 
25 25 25 24 24 24 24 24 24 
24 24 24 24 24 24 24 24 24 
24 24 24 24 24 24 24 24 24 
27 27 27 27 27 27 27 27 27 
27 27 27 27 27 27 27 27 27 
27 27 27 27 27 27 27 27 27 
27 27 27 27 27 27 27 27 27 
27 26 26 26 26 26 26 26 26 
26 26 26 26 26 26 26 25 25 
25 25 25 25 25 25 25 25 25 
25 25 25 25 25 25 25 25 25 
25 25 25 25 25 25 24 24 24 
24 24 24 24 24 24 24 24 24 
24 24 24 24 24 24 24 24 24 
24 24 24 24 24 24 27 27 27 
27 27 27 27 27 27 27 27 27 
27 27 27 27 27 27 27 27 27 
27 27 27 27 27 27 27 27 27 
27 27 27 27 27 26 26 26 26 
26 26 26 26 26 26 26 26 26 
25 25 25 25 25 25 25 25 25 
25 25 25 25 25 25 25 25 25 
25 25 25 25 25 24 24 24 24 
24 24 24 24 24 24 24 24 24 
24 24 24 24 24 24 24 24 24 
24 24 27 28 27 27 27 27 27 
27 27 27 27 27 27 27 27 27 
27 27 27 27 27 27 27 27 27 
27 27 27 27 27 27 27 27 27 
27 26 26 26 26 26 26 26 26 
26 26 26 26 26 26 26 25 25 
25 25 25 25 25 25 25 25 25 
25 25 25 25 25 25 25 25 25 
25 25 25 25 25 24 24 24 24 
24 24 24 24 24 24 24 24 24 
24 24 24 24 24 24 24 24 24 
24 24 24 24 27 28 27 28 27 
27 27 27 27 27 27 27 27 27 
27 27 27 27 27 27 27 27 27 
27 27 27 27 27 27 27 27 27 
27 27 27 27 27 27 27 27 27 
27 27 26 26 26 26 26 26 26 
26 25 25 25 25 25 25 25 25 
25 25 25 25 25 25 25 25 25 
25 25 25 25 25 25 25 25 25 
25 24 24 24 24 24 24 24 24 
24 24 24 24 24 24 24 24 24 
24 24 24 24 24 24 24 24 24 
24 28 28 27 28 27 27 27 27 
27 27 27 27 27 27 27 27 27 
27 27 27 27 27 27 27 27 27 
27 27 27 27 27 27 27 27 27 
27 26 26 26 26 26 26 26 26 
26 26 26 26 25 25 25 25 25 
25 25 25 25 25 25 25 25 25 
25 25 25 25 25 25 25 25 25 
25 25 25 25 24 24 24 24 24 
24 24 24 24 24 24 24 24 24 
24 24 24 24 24 24 24 24 24 
24 24 24 24 24 23 23 23 23 
23 23 23 28 28 28 28 28 28 
27 27 27 27 27 27 27 27 27 
27 27 27 27 27 27 27 27 27 
27 27 27 27 27 27 27 27 26 
26 26 26 26 26 26 26 26 26 
26 25 25 25 25 25 25 25 25 
25 25 25 25 25 25 25 25 25 
25 25 25 25 25 25 25 25 24 
24 24 24 24 24 24 24 24 24 
24 24 24 24 24 24 24 24 24 
24 24 24 24 24 24 24 24 24 
24 24 24 24 24 23 23 23 23 
23 23 23 23 23 28 28 28 28 
28 28 28 27 27 27 27 27 27 
27 27 27 27 27 27 27 27 27 
27 27 27 27 27 27 27 27 27 
27 27 27 27 27 27 27 27 27 
27 27 27 27 26 26 26 26 26 
26 26 26 25 25 25 25 25 25 
25 25 25 25 25 25 25 25 25 
25 25 25 25 25 24 24 24 24 
24 24 24 24 24 24 24 24 24 
24 24 24 24 24 24 24 24 24 
24 24 24 24 24 24 24 24 24 
24 23 23 23 23 23 28 28 28 
28 28 28 27 27 27 27 27 27 
27 27 27 27 27 27 27 27 27 
27 27 27 27 27 27 27 27 27 
27 27 27 27 27 27 26 26 26 
26 26 26 26 25 25 25 25 25 
25 25 25 25 25 25 25 25 25 
25 25 25 25 25 25 25 25 25 
24 24 24 24 24 24 24 24 24 
24 24 24 24 24 24 24 24 24 
24 24 24 24 24 24 24 24 24 
23 23 23 23 23 23 23 28 28 
28 28 28 28 28 28 28 27 27 
27 27 27 27 27 27 27 27 27 
27 27 27 27 27 27 27 27 27 
27 27 27 27 27 27 27 27 27 
27 27 27 27 26 26 26 26 26 
26 26 25 25 25 25 25 25 25 
25 25 25 25 25 25 25 25 25 
25 25 25 25 25 24 24 24 24 
24 24 24 24 24 24 24 24 24 
24 24 24 24 24 24 24 24 24 
24 24 24 24 24 24 24 24 24 
24 24 23 23 23 23 23 23 23 
23 28 28 28 28 28 28 28 28 
28 28 28 27 27 27 27 27 27 
27 27 27 27 27 27 27 27 27 
27 27 27 27 27 27 27 27 27 
27 27 27 27 27 26 26 26 26 
26 26 26 26 25 25 25 25 25 
25 25 25 25 25 25 25 25 25 
25 25 25 25 25 25 25 25 24 
24 24 24 24 24 24 24 24 24 
24 24 24 24 24 24 24 24 24 
24 24 24 24 24 24 24 24 24 
24 23 23 23 23 23 23 23 23 
23 23 23 28 28 28 28 28 28 
28 28 28 28 28 28 27 27 27 
27 27 27 27 27 27 27 27 27 
27 27 27 27 27 27 27 27 27 
27 27 27 27 27 27 27 26 26 
26 26 26 26 26 26 26 25 25 
25 25 25 25 25 25 25 25 25 
25 25 25 25 25 25 25 25 25 
25 25 25 25 24 24 24 24 24 
24 24 24 24 24 24 24 24 24 
24 24 24 24 24 24 24 24 24 
24 24 24 24 24 24 24 24 24 
24 23 23 23 23 23 23 23 28 
28 28 28 28 28 28 28 28 27 
27 27 27 27 27 27 27 27 27 
27 27 27 27 27 27 27 27 27 
27 27 27 27 27 27 27 27 26 
26 26 26 26 26 25 25 25 25 
25 25 25 25 25 25 25 25 25 
25 25 25 25 24 24 24 24 24 
24 24 24 24 24 24 24 24 24 
24 24 24 24 24 24 24 24 24 
24 24 24 24 24 24 24 24 24 
24 24 24 24 23 23 23 23 23 
23 23 23 23 23 28 28 28 28 
28 28 28 28 28 28 28 28 28 
28 28 28 27 27 27 27 27 27 
27 27 27 27 27 27 27 27 27 
27 27 27 27 27 27 27 27 27 
27 27 27 27 27 26 26 26 26 
26 26 25 25 25 25 25 25 25 
25 25 25 25 25 25 25 25 25 
25 25 25 25 25 25 24 24 24 
24 24 24 24 24 24 24 24 24 
24 24 24 24 24 24 24 24 24 
24 24 24 24 24 24 24 24 24 
24 24 24 24 24 24 24 24 24 
24 23 23 23 23 23 23 23 23 
23 28 28 28 28 28 28 28 28 
28 28 28 28 28 27 27 27 27 
27 27 27 27 27 27 27 27 27 
27 27 27 27 27 27 27 27 27 
27 27 27 26 26 26 26 26 26 
26 25 25 25 25 25 25 25 25 
25 25 25 25 25 25 25 25 25 
25 25 25 24 24 24 24 24 24 
24 24 24 24 24 24 24 24 24 
24 24 24 24 24 24 24 24 24 
24 24 24 24 24 24 24 24 24 
24 24 24 24 24 24 24 24 24 
23 23 23 23 23 23 23 23 23 
23 23 28 28 28 28 28 28 28 
28 28 28 28 28 28 28 28 28 
28 28 27 27 27 27 27 27 27 
27 27 27 27 27 27 27 27 27 
27 27 27 27 27 27 27 27 27 
27 27 27 27 27 27 26 26 26 
26 25 25 25 25 25 25 25 25 
25 25 25 25 25 25 25 25 25 
24 24 24 24 24 24 24 24 24 
24 24 24 24 24 24 24 24 24 
24 24 24 24 24 24 24 24 24 
24 24 23 23 23 23 23 23 23 
23 23 23 28 28 28 28 28 28 
28 28 28 28 28 28 28 28 28 
28 28 28 27 27 27 27 27 27 
27 27 27 27 27 27 27 27 27 
27 27 27 27 27 27 27 27 27 
27 27 26 27 26 26 26 25 25 
25 25 25 25 25 25 25 25 25 
25 25 25 25 25 25 25 25 25 
25 24 24 24 24 24 24 24 24 
24 24 24 24 24 24 24 24 24 
24 24 24 24 24 24 24 24 24 
24 24 24 24 24 24 24 24 24 
24 24 24 24 24 24 24 23 23 
23 23 23 23 23 23 23 23 23 
28 28 28 28 28 28 28 28 28 
28 28 28 28 28 28 28 27 27 
27 27 27 27 27 27 27 27 27 
27 27 27 27 27 27 27 27 27 
27 27 27 27 27 27 27 27 27 
27 27 27 27 27 27 25 25 25 
25 25 25 25 25 25 25 25 25 
25 25 25 24 24 24 24 24 24 
24 24 24 24 24 24 24 24 24 
24 24 24 24 24 24 24 24 24 
24 24 24 24 24 24 24 24 24 
24 23 23 23 23 23 23 23 23 
28 28 28 28 28 28 28 28 28 
28 28 28 28 28 28 28 28 28 
28 27 27 27 27 27 27 27 27 
27 27 27 27 27 27 27 27 27 
27 27 27 27 27 27 27 27 27 
27 27 25 25 25 25 25 25 25 
25 25 25 25 25 25 25 25 25 
25 25 25 25 25 25 25 24 24 
24 24 24 24 24 24 24 24 24 
24 24 24 24 24 24 24 24 24 
24 24 24 24 24 24 24 24 24 
24 24 24 24 24 24 24 24 24 
23 23 23 23 23 23 23 23 23 
23 23 23 23 23 28 28 28 28 
28 28 28 28 28 28 28 28 28 
28 28 28 28 28 28 28 27 27 
27 27 27 27 27 27 27 27 27 
27 27 27 27 27 27 27 27 27 
27 27 27 27 27 27 27 27 27 
27 27 27 27 25 25 25 25 25 
25 25 25 25 25 25 25 25 25 
25 25 25 25 25 25 25 25 25 
24 24 24 24 24 24 24 24 24 
24 24 24 24 24 24 24 24 24 
24 24 24 24 24 24 24 24 24 
24 24 24 24 24 24 24 24 23 
23 23 23 23 23 23 23 23 23 
23 23 23 23 23 28 28 28 28 
28 28 28 28 28 28 28 28 28 
28 28 28 28 28 27 27 27 27 
27 27 27 27 27 27 27 27 27 
27 27 27 27 27 27 27 27 27 
27 27 27 27 25 25 25 25 25 
25 25 25 25 25 25 25 25 25 
25 25 25 25 25 25 25 24 24 
24 24 24 24 24 24 24 24 24 
24 24 24 24 24 24 24 24 24 
24 24 24 24 24 24 24 24 24 
24 24 24 23 23 23 23 24 23 
23 23 23 23 23 23 23 23 23 
23 23 23 28 28 28 28 28 28 
28 28 28 28 28 28 28 28 28 
28 28 28 28 28 28 28 28 28 
27 27 27 27 27 27 27 27 27 
27 27 27 27 27 27 27 27 27 
27 27 27 27 27 27 27 27 27 
27 27 27 27 27 27 27 27 25 
25 25 25 25 25 25 25 25 25 
25 25 25 25 25 25 25 25 25 
25 25 25 25 24 24 24 24 24 
24 24 24 24 24 24 24 24 24 
24 24 24 24 24 24 24 24 24 
24 24 24 24 24 24 24 24 24 
24 24 23 23 23 23 23 23 23 
23 23 23 23 23 23 23 23 23 
23 23 23 23 23 23 23 28 28 
28 28 28 28 28 28 28 28 28 
28 28 28 28 28 28 28 28 28 
28 28 28 28 28 27 27 27 27 
27 27 27 27 27 27 27 27 27 
27 27 27 27 27 27 27 27 27 
27 27 27 27 27 27 27 27 27 
27 27 25 25 25 25 25 25 25 
25 25 25 25 25 25 25 24 24 
24 24 24 24 24 24 24 24 24 
24 24 24 24 24 24 24 24 24 
24 24 24 24 24 24 24 24 24 
24 24 23 23 23 23 23 23 23 
23 23 23 23 23 23 23 23 23 
23 23 23 23 23 23 23 23 28 
28 28 28 28 28 28 28 28 28 
28 28 28 28 28 28 28 28 28 
28 28 28 28 28 27 27 27 27 
27 27 27 27 27 27 27 27 27 
27 27 27 27 27 27 27 27 27 
27 27 27 27 27 27 27 27 27 
27 27 27 25 25 25 25 25 25 
25 25 25 25 25 25 25 25 25 
24 24 24 24 24 24 24 24 24 
24 24 24 24 24 24 24 24 24 
24 24 24 24 24 24 24 24 24 
24 24 24 24 24 24 23 23 23 
23 23 23 23 23 23 23 23 23 
23 23 23 23 23 23 23 23 23 
23 23 23 23 28 28 28 28 28 
28 28 28 28 28 28 28 28 28 
28 28 28 28 28 28 28 28 28 
28 28 27 27 27 27 27 27 27 
27 27 27 27 27 27 27 27 27 
27 27 27 27 27 27 27 27 27 