# vtk DataFile Version 4.2
vtk output
ASCII
DATASET POLYDATA
POINTS 45910 float
-1.26731 -28.7661 8.09567 -0.998305 -28.8481 8.22948 -1.34786 -28.9532 8.38346 
-0.92781 -28.6834 8.04253 -1.52805 -28.9603 8.40655 -0.985653 -28.5799 7.91232 
-1.56076 -28.9425 8.31079 -1.10957 -28.6324 7.88477 -1.66204 -28.9862 8.42909 
-1.77875 -29.0676 8.55871 -1.41816 -28.8387 8.11132 -0.891894 -28.4497 7.77593 
-0.758071 -28.4388 7.82001 -1.69762 -29.0021 8.36863 -1.63486 -29.0334 8.21905 
-1.19572 -28.7197 7.86324 -0.740819 -28.2714 7.56425 -0.530542 -28.305 7.73493 
-1.96461 -29.1204 8.66722 -2.06859 -29.1888 8.95509 -1.78149 -29.0853 8.44635 
-1.42904 -28.9393 7.94782 -0.405625 -28.0296 7.47073 -2.34549 -29.2537 9.10872 
-1.82198 -29.1839 8.32638 -1.71914 -29.2599 8.06708 -1.26199 -28.8313 7.76672 
-0.875033 -28.4241 7.5496 -0.409835 -28.0064 7.34957 -0.272946 -28.0994 7.61415 
-2.25991 -29.2228 8.92249 -2.02166 -29.1986 8.60157 -1.87253 -29.196 8.45373 
-1.46517 -29.1514 7.78314 -1.37142 -29.1077 7.68675 -0.604451 -28.178 7.33438 
-0.186019 -27.9057 7.31199 -0.16739 -27.9483 7.43138 0.0698377 -27.8834 7.46489 
-2.42966 -29.2554 9.09478 -2.24645 -29.2551 8.8229 -2.07423 -29.376 8.41872 
-1.62896 -29.2849 7.91167 -1.19707 -28.848 7.61253 -0.938389 -28.5736 7.49365 
-0.682034 -28.3171 7.28933 -0.384682 -28.0885 7.0755 -0.2451 -27.9534 7.19036 
0.0135903 -27.8168 7.32031 -2.50985 -29.2343 9.20855 -2.5907 -29.2895 9.15883 
-2.35863 -29.4289 8.70701 -1.93074 -29.7244 7.82956 -1.53934 -29.6872 7.2591 
-1.47911 -29.5936 7.25718 -1.10707 -28.886 7.42161 -0.207599 -27.8409 7.09553 
0.144541 -27.7502 7.34241 -2.45118 -29.2279 9.26672 -2.57327 -29.3859 8.95734 
-2.21365 -29.5783 8.36023 -1.71615 -29.638 7.60419 -1.21162 -29.3568 7.09238 
-0.864249 -28.6791 7.22127 -0.492849 -28.2009 7.03916 -0.293591 -28.0133 7.02244 
-0.119692 -27.7586 7.18138 -0.0034782 -27.6622 7.21467 -2.80119 -29.2635 9.4815 
-2.70831 -29.2619 9.34156 -2.821 -29.3287 9.3152 -2.78002 -29.4535 9.07917 
-2.12568 -30.0586 7.66292 -1.83168 -30.0918 7.23451 -1.6095 -29.7905 7.26655 
-1.24522 -29.8122 6.64243 -1.03551 -29.2201 6.91843 -0.869037 -29.0785 6.79272 
-0.662234 -28.5138 7.0246 -0.524176 -28.3371 6.92622 -0.28299 -28.0199 6.87125 
-0.0698065 -27.3406 6.8652 0.220339 -27.5818 7.27481 -2.51 -29.7583 8.40868 
-2.29479 -30.061 7.8448 -1.95356 -30.0319 7.46351 -0.4579 -28.3695 6.77872 
-0.315412 -28.1122 6.87195 -0.262512 -27.9142 6.87391 -0.150634 -27.5628 6.78866 
0.0379839 -27.3626 6.97675 0.117422 -27.2268 6.88735 0.269144 -27.5048 7.22099 
-2.90661 -29.3931 9.31722 -2.7226 -29.7533 8.61978 -2.3867 -30.2258 7.69418 
-2.18791 -30.2174 7.48494 -2.17391 -30.3916 7.20604 -1.57792 -30.0113 6.93707 
-0.879864 -29.2535 6.60071 -0.590875 -28.8503 6.53262 -0.374483 -28.2437 6.76951 
-0.259275 -28.0237 6.73551 -0.137524 -27.3494 6.69117 0.212853 -27.2138 6.90539 
-3.12037 -29.5977 9.15823 -2.82773 -29.5581 8.9677 -2.64091 -30.009 8.18932 
-1.86819 -30.2445 7.0401 -1.68921 -30.1636 6.90103 -1.28555 -30.1846 6.25059 
-1.05436 -29.8229 6.26649 -0.362687 -28.4328 6.48721 -0.22226 -27.8202 6.61799 
-0.0900214 -27.5215 6.70945 -0.0799933 -27.2584 6.76548 0.125611 -27.1591 6.79457 
0.317378 -27.3709 7.07773 -3.00589 -29.291 9.57466 -2.85718 -29.2461 9.69178 
-3.12634 -29.4414 9.41974 -2.89972 -29.6727 8.89495 -2.64739 -30.2445 7.84675 
-2.35761 -30.3416 7.44616 -2.02728 -30.4917 6.86489 -1.55431 -30.3575 6.44258 
-0.689846 -29.2424 6.21802 -0.263071 -28.1439 6.54703 -0.140089 -27.6371 6.62947 
-0.054693 -27.4386 6.61577 -0.0205373 -27.1772 6.72783 0.00820729 -27.21 6.82106 
0.270512 -27.1803 6.83591 0.541391 -27.8615 7.26734 0.55273 -27.8838 7.36824 
0.532749 -27.7769 7.25683 0.60098 -27.9424 7.21302 0.629042 -27.9776 7.34752 
-3.12957 -29.1704 9.91406 -3.2527 -29.325 9.68073 -3.38603 -29.7247 9.11489 
-2.73726 -30.0144 8.25686 -2.6068 -30.3818 7.59804 -2.45856 -30.6095 7.05989 
-2.13664 -30.6917 6.65833 -1.71912 -30.3488 6.69073 -1.36105 -30.2826 6.22706 
-1.11465 -30.0742 6.07225 -0.748529 -29.5404 5.97031 -0.527749 -28.9021 6.31658 
-0.244942 -28.3329 6.27222 -0.163462 -27.9046 6.41743 -0.127145 -27.6376 6.52584 
-0.0656927 -27.566 6.57643 -0.00181212 -27.2429 6.64616 0.0592273 -27.129 6.69671 
0.198005 -27.1607 6.70723 0.375746 -27.2307 6.88041 0.578215 -27.837 7.15463 
0.53366 -27.6608 7.11556 0.686062 -28.0748 7.18762 0.688665 -28.0143 7.37901 
0.729789 -28.0236 7.53202 0.886515 -28.2323 7.67141 0.923678 -28.2594 7.89915 
0.993551 -28.3079 7.85579 1.11001 -28.4329 8.2742 1.25194 -28.5291 8.35107 
1.38361 -28.6357 8.68308 -3.23426 -29.1727 9.93696 -3.24582 -29.2219 9.88289 
-3.25253 -29.4074 9.58029 -3.37092 -29.4976 9.47736 -3.10786 -29.9515 8.60627 
-3.04583 -29.7164 8.93549 -3.05569 -30.0393 8.41971 -3.12855 -30.1587 8.25698 
-1.84171 -30.5422 6.57122 -1.64658 -30.5297 6.27672 -1.44586 -30.4169 6.15573 
-1.19126 -30.331 5.85858 -0.878532 -29.9817 5.7238 -0.515704 -29.1453 5.95914 
-0.284189 -28.7618 5.80313 -0.283338 -28.5015 6.16291 -0.193932 -28.2153 6.31507 
0.00521097 -27.5215 6.58752 0.055715 -27.375 6.61995 0.424732 -27.288 6.84331 
0.502225 -27.3951 6.89602 0.55097 -27.5173 6.8493 0.61287 -27.9341 6.98845 
0.646956 -28.0346 7.10518 0.74689 -28.1233 7.29596 0.789558 -28.1312 7.40721 
1.23492 -28.5402 8.2649 1.45669 -28.6974 8.55981 -3.47941 -29.1131 10.1545 
-3.48655 -29.1753 10.0231 -3.36115 -29.3412 9.70526 -3.48419 -29.5965 9.40881 
-3.49149 -29.8445 8.96792 -2.91224 -30.5047 7.5446 -2.20554 -30.7852 6.53465 
-1.83298 -30.6588 6.33169 -1.31669 -30.3807 6.04895 -1.04763 -30.2357 5.72437 
-0.744604 -29.9183 5.4436 -0.344166 -29.1787 5.44751 -0.209431 -28.459 6.04966 
-0.197754 -28.2979 6.10707 -0.0993258 -27.93 6.14677 -0.0959246 -27.8417 6.26611 
-0.00210299 -27.6445 6.43957 0.124773 -27.2268 6.6382 0.339563 -27.2208 6.78436 
0.488986 -27.4192 6.80444 0.563548 -27.6633 6.88342 0.609168 -27.7413 6.71298 
0.782688 -28.3503 7.16594 0.833311 -28.2822 7.28815 1.00975 -28.574 7.55699 
1.00087 -28.3846 7.73747 1.08339 -28.4542 7.90407 1.50314 -28.8027 8.49628 
1.52039 -28.701 8.72108 -3.34337 -29.098 10.1996 -3.46549 -29.2849 9.85435 
-3.567 -29.4642 9.64427 -3.64729 -29.7112 9.26896 -3.27097 -30.0746 8.49024 
-3.13437 -30.3926 7.81832 -2.632 -30.7287 6.93239 -2.03075 -30.7834 6.33251 
-1.5871 -30.6746 5.98541 -1.37461 -30.5013 5.92837 -1.23451 -30.5812 5.5456 
-1.01083 -30.3751 5.43565 -0.840468 -30.156 5.3548 -0.555429 -29.5955 5.43277 
-0.252906 -28.934 5.51815 -0.106166 -28.0353 6.06565 0.0670838 -27.6337 6.44505 
0.0647746 -27.5371 6.6492 0.129328 -27.3788 6.6898 0.243723 -27.2754 6.70873 
0.327317 -27.3633 6.83921 0.48199 -27.5033 6.69087 0.547707 -27.6056 6.7488 
0.665492 -27.9087 6.74528 0.62143 -28.0775 6.93528 0.691057 -28.1617 7.05244 
0.886917 -28.3392 7.44368 1.33204 -28.772 8.17756 1.52944 -29.062 8.26309 
1.74359 -28.875 8.85364 -3.62977 -28.9859 10.4172 -3.66004 -29.0233 10.3269 
-3.81848 -29.8335 9.03146 -3.3768 -30.1428 8.37151 -3.29297 -30.3028 8.06366 
-3.10679 -30.5094 7.57239 -2.77491 -30.6513 7.14619 -2.37286 -30.8127 6.59565 
-2.1906 -30.9402 6.15492 -1.81871 -30.8283 6.02811 -0.722423 -30.2163 4.96362 
-0.541206 -29.8298 5.01534 -0.37919 -29.609 4.92446 -0.222598 -29.1375 5.09558 
-0.159443 -28.8579 5.33305 -0.129178 -28.4494 5.79121 -0.121629 -28.2736 6.0022 
-0.0347216 -27.9746 6.0122 -0.0325015 -27.8535 6.18918 0.0497144 -27.7675 6.2778 
0.207394 -27.3558 6.65355 0.38177 -27.4636 6.74637 0.583942 -27.8831 6.63258 
0.769907 -28.5166 6.94858 0.897856 -28.4388 7.37414 1.24528 -29.0162 7.77822 
1.5623 -28.7293 8.83544 -3.69554 -29.1912 10.059 -3.74389 -29.4428 9.74166 
-3.9532 -29.6841 9.333 -3.76093 -30.0208 8.67808 -3.50391 -30.0524 8.61612 
-3.44545 -30.203 8.29122 -3.4995 -30.2938 8.09709 -2.9865 -30.6477 7.23154 
-2.92897 -30.8111 6.79314 -2.50215 -30.9046 6.47207 -1.99052 -30.8545 6.17083 
-1.64797 -30.9582 5.51009 -1.13404 -30.6079 5.28313 -0.953709 -30.4571 5.20691 
-0.141121 -28.6822 5.49228 -0.0768437 -28.2564 5.88715 -0.0497718 -28.1526 5.87243 
0.0610827 -27.8898 6.11462 0.139852 -27.762 6.24547 0.149579 -27.5335 6.58342 
0.137658 -27.4609 6.66749 0.231356 -27.5174 6.56174 0.296164 -27.4096 6.72922 
0.365369 -27.4783 6.67197 0.561071 -27.6352 6.65431 0.608335 -28.2451 6.56238 
0.617406 -28.1598 6.84404 0.684319 -28.4751 6.78265 0.844474 -28.8314 6.93417 
0.934304 -29.0034 7.03509 1 -28.705 7.44924 1.12881 -28.8242 7.67483 
1.85418 -29.2156 8.60039 1.82376 -28.8383 9.11953 -4.01815 -28.9489 10.4748 
-3.87923 -29.3817 9.82906 -3.98675 -29.7794 9.11239 -3.22087 -30.5335 7.55848 
-2.52676 -30.9737 6.27854 -2.06214 -31.052 5.76818 -1.8651 -31.0307 5.62404 
-1.25452 -30.7857 5.1685 -0.856916 -30.5789 4.72503 -0.609531 -30.2112 4.62484 
-0.428062 -29.8981 4.58697 -0.171519 -29.2641 4.70232 -0.0463381 -28.8021 5.19737 
-0.0838129 -28.4516 5.59605 -0.0238697 -28.3561 5.6918 0.02269 -28.1566 5.8525 
0.0284361 -27.9539 6.00947 0.267134 -27.589 6.43098 0.195671 -27.4122 6.6051 
0.436507 -27.6081 6.48316 0.575116 -27.8468 6.53695 0.517317 -28.2727 6.29489 
0.631817 -28.2148 6.69488 0.645004 -28.3081 6.79228 0.731668 -28.6163 6.77979 
0.755834 -29.0158 6.56424 1.15261 -29.1795 7.44561 1.24313 -29.2683 7.54747 
1.58753 -29.1968 8.20768 2.01096 -29.274 8.76902 1.99538 -28.9436 9.19316 
-3.97769 -28.9028 10.567 -4.05574 -29.3557 9.8926 -4.05867 -29.8412 8.99313 
-3.66589 -30.1456 8.44699 -3.53916 -30.461 7.73953 -3.11884 -30.735 7.03807 
-2.87508 -30.9283 6.46165 -2.35898 -31.073 5.90475 -2.1071 -31.0883 5.66973 
-1.91557 -31.1083 5.48005 -1.42261 -30.9048 5.24458 -1.03098 -30.6818 4.96188 
-0.701813 -30.4776 4.49968 -0.262485 -29.6162 4.49152 -0.282058 -29.4827 4.73701 
-0.0859151 -29.0222 4.87402 -0.0562268 -28.6358 5.42257 0.0648548 -27.9706 5.93709 
0.0775618 -27.8633 6.00298 0.145635 -27.8186 6.09105 0.227495 -27.7703 6.23923 
0.555986 -27.7318 6.55355 0.633042 -28.3874 6.61684 0.676858 -28.7993 6.42349 
0.835422 -29.0823 6.74577 1.02647 -29.0995 7.23626 1.35623 -29.446 7.52945 
[...]
POINT_DATA 45910
FIELD FieldData 2
RegionId 1 45910 int
9 9 9 9 9 9 9 9 9 
9 9 9 9 9 9 9 9 9 
9 9 9 9 9 9 9 9 9 
9 9 9 9 9 9 9 9 9 
9 9 9 9 9 9 9 9 9 
9 9 9 9 9 9 9 9 9 
9 9 9 9 9 9 9 9 9 
9 9 9 9 9 9 9 9 9 
9 9 9 9 9 9 9 9 9 
9 9 9 9 9 9 9 9 9 
9 9 9 9 9 9 9 9 9 
9 9 9 9 9 9 9 9 9 
9 9 9 9 9 9 9 9 9 
9 9 9 9 9 9 9 9 9 
9 9 9 9 9 9 9 10 10 
10 10 10 9 9 9 9 9 9 
9 9 9 9 9 9 9 9 9 
9 9 9 9 9 10 10 10 10 
10 10 10 10 10 10 10 9 9 
9 9 9 9 9 9 9 9 9 
9 9 9 9 9 9 9 9 9 
10 10 10 10 10 10 10 10 9 
9 9 9 9 9 9 9 9 9 
9 9 9 9 9 9 9 9 9 
10 10 10 10 10 10 10 10 10 
10 9 9 9 9 9 9 9 9 
9 9 9 9 9 9 9 9 9 
9 9 9 9 9 10 10 10 10 
10 10 10 10 9 9 9 9 9 
9 9 9 9 9 9 9 9 9 
9 9 9 9 9 9 9 9 10 
10 10 10 10 9 9 9 9 9 
9 9 9 9 9 9 9 9 9 
9 9 9 9 9 9 9 9 9 
9 10 10 10 10 10 10 10 10 
10 10 9 9 9 9 9 9 9 
9 9 9 9 9 9 9 9 9 
9 9 9 9 9 10 10 10 10 
10 10 10 10 10 10 9 9 9 
9 9 9 9 9 9 9 9 9 
9 9 9 9 9 9 9 9 9 
9 10 10 10 10 10 10 10 10 
9 9 9 9 9 9 9 9 9 
9 9 9 9 9 9 9 9 9 
9 9 9 9 10 10 10 10 10 
10 10 10 10 10 10 10 9 9 
9 9 9 9 9 9 9 9 9 
9 9 9 9 9 9 9 9 9 
9 9 9 9 10 10 10 10 10 
10 10 10 10 10 10 10 9 9 
9 9 9 9 9 9 9 9 9 
9 9 9 9 9 9 9 9 9 
9 9 9 9 10 10 10 10 10 
10 10 10 10 10 9 9 9 9 
9 9 9 9 9 9 9 9 9 
9 9 9 9 9 9 9 9 9 
9 9 9 9 9 9 10 10 10 
10 10 10 10 10 10 10 10 10 
10 9 9 9 9 9 9 9 9 
9 9 9 9 9 9 9 9 9 
9 9 9 9 9 9 9 10 10 
10 10 10 10 10 10 10 9 9 
9 9 9 9 9 9 9 9 9 
9 9 9 9 9 9 9 9 9 
9 9 9 9 9 9 10 10 10 
10 10 10 10 10 10 10 10 9 
9 9 9 9 9 9 9 9 9 
9 9 9 9 9 9 9 9 9 
9 9 9 9 9 9 9 10 10 
10 10 10 10 10 10 10 9 9 
9 9 9 9 9 9 9 9 9 
9 9 9 9 9 9 9 9 9 
9 9 9 9 10 10 10 10 10 
9 10 10 10 10 10 10 10 10 
10 10 10 9 9 9 9 9 9 
9 9 9 9 9 9 9 9 9 
9 9 9 9 9 10 10 10 10 
10 10 10 10 10 10 9 9 9 
9 9 9 9 9 9 9 9 9 
9 9 9 9 9 9 9 9 9 
9 9 10 10 10 10 10 10 10 
10 10 10 10 10 10 10 10 10 
10 9 9 9 9 9 9 9 9 
9 9 9 9 9 9 9 9 9 
9 9 9 9 9 9 9 10 10 
10 10 10 10 10 10 10 9 9 
9 9 9 9 9 9 9 9 9 
9 9 9 9 9 9 9 9 9 
9 9 10 10 10 10 10 10 10 
10 10 10 10 10 10 10 10 10 
10 10 10 10 9 9 9 9 9 
9 9 9 9 9 9 9 9 9 
9 9 9 9 9 9 9 9 9 
9 9 9 9 10 10 10 10 10 
10 10 10 10 10 10 10 9 9 
9 9 9 9 9 9 9 9 9 
9 9 9 9 9 9 9 9 9 
9 9 9 9 9 9 10 10 10 
10 10 10 10 10 10 10 10 10 
10 10 10 9 9 9 9 9 9 
9 9 9 9 9 9 9 9 9 
9 9 9 9 9 9 9 9 9 
10 10 10 10 10 10 10 10 10 
10 10 10 10 10 10 9 9 9 
9 9 9 9 9 9 9 9 9 
9 9 9 9 9 9 9 9 9 
9 9 9 9 9 9 9 9 9 
10 10 10 10 10 10 10 10 10 
10 10 10 10 10 10 10 9 9 
9 9 9 9 9 9 9 9 9 
9 9 9 9 9 9 9 9 9 
9 9 9 9 9 9 9 9 9 
9 10 10 10 10 10 10 10 10 
10 10 10 10 10 10 10 10 10 
10 10 10 10 9 9 9 9 9 
9 9 9 9 9 9 9 9 9 
9 9 9 9 9 9 9 9 9 
9 9 9 10 10 10 10 10 10 
10 10 10 10 10 10 10 10 9 
9 9 9 9 9 9 9 9 9 
9 9 9 9 9 9 9 9 9 
9 9 9 9 9 9 9 10 10 
10 10 10 10 10 10 10 10 10 
10 10 10 10 10 10 10 9 9 
9 9 9 9 9 9 9 9 9 
9 9 9 9 9 9 9 9 9 
9 9 9 9 9 9 9 9 9 
9 9 9 9 10 10 10 10 10 
10 10 10 10 10 10 10 10 10 
10 10 10 10 10 10 10 9 9 
9 9 9 9 9 9 9 9 9 
9 9 9 9 9 9 9 9 9 
9 9 9 9 9 9 9 9 9 
9 10 10 10 10 10 10 10 10 
10 10 10 10 10 10 10 10 10 
10 10 10 10 10 10 10 9 9 
9 9 9 9 9 9 9 9 9 
9 9 9 9 9 9 9 9 9 
9 9 9 9 9 9 9 9 9 
10 10 10 10 10 10 10 10 10 
10 10 10 10 10 10 10 10 10 
9 9 9 9 9 9 9 9 9 
9 9 9 9 9 9 9 9 9 
9 9 9 9 9 9 9 9 9 
9 9 9 9 9 9 9 9 9 
9 9 10 10 10 10 10 10 10 
10 10 10 10 10 10 10 10 10 
10 10 10 10 10 10 10 10 10 
10 10 9 9 9 9 9 9 9 
9 9 9 9 9 9 9 9 9 
9 9 9 9 9 9 9 9 9 
9 9 9 9 9 10 10 10 10 
10 10 10 10 10 10 10 10 10 
10 10 10 10 10 10 10 10 9 
9 9 9 9 9 9 9 9 9 
9 9 9 9 9 9 9 9 9 
9 9 9 9 9 9 9 9 10 
10 10 10 10 10 10 10 10 10 
10 10 10 10 10 10 10 10 10 
10 10 10 10 10 10 10 9 9 
9 9 9 9 9 9 9 9 9 
9 9 9 9 9 9 9 9 9 
9 9 9 9 9 9 9 9 9 
9 9 9 10 10 10 10 10 10 
10 10 10 10 10 10 10 10 10 
10 10 10 10 10 10 10 10 10 
10 10 10 10 10 10 9 9 9 
9 9 9 9 9 9 9 9 9 
9 9 9 9 9 9 9 9 9 
9 9 9 9 9 9 9 10 10 
10 10 10 10 10 10 10 10 10 
10 10 10 10 10 10 10 10 10 
10 9 9 9 9 9 9 9 9 
9 9 9 9 9 9 9 9 9 
9 9 9 9 9 9 9 9 9 
9 9 10 9 10 10 10 10 10 
10 10 10 10 10 10 10 10 10 
10 10 10 10 10 10 10 10 10 
10 10 10 10 10 10 10 9 9 
9 9 9 9 9 9 9 9 9 
9 9 9 9 9 9 9 9 9 
9 9 9 9 9 9 10 10 10 
10 10 10 10 10 10 10 10 10 
10 10 10 10 10 10 10 10 10 
10 10 10 10 10 10 10 10 9 
9 9 9 9 9 9 9 9 9 
9 9 9 9 9 9 9 9 9 
9 9 9 9 9 9 9 9 9 
9 9 9 9 9 9 10 10 10 
10 10 10 10 10 10 10 10 10 
10 10 10 10 10 10 10 10 10 
10 10 10 10 10 10 10 10 10 
10 10 10 10 10 10 10 10 9 
9 9 9 9 9 9 9 9 9 
9 9 9 9 9 9 9 9 9 
9 9 9 9 9 9 9 9 9 
9 9 9 9 9 10 10 10 10 
10 10 10 10 10 10 10 10 10 
10 10 10 10 10 10 10 10 10 
10 10 10 10 10 10 10 10 10 
10 10 9 9 9 9 9 9 9 
9 9 9 9 9 9 9 9 9 
9 9 9 9 9 9 9 9 9 
9 9 9 9 9 9 9 9 9 
9 9 9 9 10 10 10 10 10 
10 10 10 10 10 10 10 10 10 
10 10 10 10 10 10 10 10 10 
10 10 10 10 10 10 10 10 10 
10 10 9 9 9 9 9 9 9 
9 9 9 9 9 9 9 9 9 
9 9 9 9 9 9 9 9 9 
9 9 9 9 9 9 9 9 9 
9 9 9 9 9 10 10 10 10 
10 10 10 10 10 10 10 10 10 
10 10 10 10 10 10 10 10 10 
10 10 10 10 10 10 10 10 10 
10 10 10 10 10 9 9 9 9 
9 9 9 9 9 9 9 9 9 
9 9 9 9 9 9 9 9 9 
9 9 9 9 9 9 9 9 9 
9 9 9 10 10 10 10 10 10 
10 10 10 10 10 10 10 10 10 
10 10 10 10 10 10 10 10 10 
10 10 10 10 10 10 10 10 10 
10 10 10 10 9 9 9 9 9 
9 9 9 9 9 9 9 9 9 
9 9 9 9 9 9 9 9 9 
9 9 9 9 9 9 9 9 9 
9 9 9 9 9 9 9 10 10 
10 10 10 10 10 10 10 10 10 
10 10 10 10 10 10 10 10 10 
10 10 10 10 10 10 10 10 10 
10 10 10 9 9 9 9 9 9 
9 9 9 9 9 9 9 9 9 
9 9 9 9 9 9 9 9 9 
9 9 9 9 9 9 9 9 9 
9 10 10 10 10 10 10 10 10 
10 10 10 10 10 10 10 10 10 
10 10 10 10 10 10 10 10 10 
10 10 10 10 10 10 10 10 10 
10 10 9 9 9 9 9 9 9 
9 9 9 9 9 9 9 9 9 
9 9 9 9 9 9 9 9 9 
9 9 9 9 9 9 9 10 10 
10 10 10 10 10 10 10 10 10 
10 10 10 10 10 10 10 10 10 
10 10 10 10 10 10 10 10 10 
10 10 10 10 10 10 10 10 9 
9 9 9 9 9 9 9 9 9 
9 9 9 9 9 9 9 9 9 
9 9 9 9 9 9 9 9 9 
9 9 9 9 9 9 10 10 10 
10 10 10 10 10 10 10 10 10 
10 10 10 10 10 10 10 10 10 
10 10 10 10 10 10 10 10 10 
10 10 10 10 10 9 9 9 9 
9 9 9 9 9 9 9 9 9 
9 9 9 9 9 9 9 9 9 
9 9 9 9 9 9 10 10 10 
10 10 10 10 10 10 10 10 10 
10 10 10 10 10 10 10 10 10 
10 10 10 10 10 10 10 10 10 
10 10 10 10 10 10 9 9 9 
9 9 9 9 9 9 9 9 9 
9 9 9 9 9 9 9 9 9 
9 9 9 9 9 9 9 9 9 
9 9 9 9 9 9 9 9 9 
9 9 9 9 9 10 10 10 10 
10 10 10 10 10 10 10 10 10 
10 10 10 10 10 10 10 10 10 
10 10 10 10 10 10 10 10 10 
10 10 8 9 9 9 9 9 9 
9 9 9 9 9 9 9 9 9 
9 9 9 9 9 9 9 9 9 
9 9 9 9 9 9 9 9 9 
9 9 9 10 10 10 10 10 10 
10 10 10 10 10 10 10 10 10 
10 10 10 10 10 10 10 10 10 
10 10 10 10 10 10 10 10 10 
10 10 10 10 10 8 8 9 8 
9 9 9 9 9 9 9 9 9 
9 9 9 9 9 9 9 9 9 
9 9 9 9 9 9 9 9 9 
9 9 9 9 9 9 9 9 9 
9 10 10 10 10 10 10 10 10 
10 10 10 10 10 10 10 10 10 
10 10 10 10 10 10 10 10 10 
10 10 10 10 10 10 10 10 10 
10 10 10 8 8 9 9 9 9 
9 9 9 9 9 9 9 9 9 
9 9 9 9 9 9 9 9 9 
9 9 9 9 9 9 9 9 9 
9 9 9 9 9 9 9 10 10 
10 10 10 10 10 10 10 10 10 
10 10 10 10 10 10 10 10 10 
10 10 10 10 10 10 10 10 10 
10 10 10 10 10 10 8 9 9 
9 9 9 9 9 9 9 9 9 
9 9 9 9 9 9 9 9 9 
9 9 9 9 9 9 9 9 9 
9 9 9 9 9 9 9 9 9 
9 10 10 10 10 10 10 10 10 
10 10 10 10 10 10 10 10 10 
10 10 10 10 10 10 10 10 10 
10 10 10 10 10 10 10 10 10 
10 10 10 10 10 8 9 9 9 
9 9 9 9 9 9 9 9 9 
9 9 9 9 9 9 9 9 9 
9 9 9 9 9 9 9 9 9 
9 9 9 9 9 9 9 9 9 
9 10 10 10 10 10 10 10 10 
10 10 10 10 10 10 10 10 10 
10 10 10 10 10 10 10 10 10 
10 10 10 10 10 10 10 10 10 
10 10 10 10 10 8 8 8 8 
9 9 9 9 9 9 9 9 9 
9 9 9 9 9 9 9 9 9 
9 9 9 9 9 9 9 9 9 
9 9 9 9 9 9 9 9 9 
9 9 9 9 9 10 10 10 10 
10 10 10 10 10 10 10 10 10 
10 10 10 10 10 10 10 10 10 
10 10 10 10 10 10 10 10 10 
10 10 10 10 10 10 10 8 8 
8 8 9 9 9 9 9 9 9 
9 9 9 9 9 9 9 9 9 
9 9 9 9 9 9 9 9 9 
9 9 9 9 9 9 9 9 9 
9 9 9 9 10 10 10 10 10 
10 10 10 10 10 10 10 10 10 
10 10 10 10 10 10 10 10 10 
10 10 10 10 10 10 10 10 10 
10 10 10 10 10 10 10 10 10 
10 10 10 10 10 8 8 8 8 
8 8 8 9 9 9 9 9 9 
9 9 9 9 9 9 9 9 9 
9 9 9 9 9 9 9 9 9 
9 9 9 9 9 9 9 9 9 
9 9 9 9 10 10 10 10 10 
10 10 10 10 10 10 10 10 10 
10 10 10 10 10 10 10 10 10 
10 10 10 10 10 10 10 10 10 
10 10 10 10 10 10 10 10 10 
8 8 8 8 8 8 8 8 9 
9 9 9 8 9 9 9 9 9 
9 9 9 9 9 9 9 9 9 
9 9 9 9 9 9 9 9 9 
9 9 9 9 9 9 9 9 9 
9 9 9 9 10 10 10 10 10 
10 10 10 10 10 10 10 10 10 
10 10 10 10 10 10 10 10 10 
10 10 10 10 10 10 10 10 10 
10 10 10 10 10 10 10 10 10 
10 10 8 8 8 8 8 8 8 
8 9 9 8 9 9 9 9 9 
9 9 9 9 9 9 9 9 9 
9 9 9 9 9 9 9 9 9 
9 9 9 10 10 10 10 10 10 
10 10 10 10 10 10 10 10 10 
10 10 10 10 10 10 10 10 10 
10 10 10 10 10 10 10 10 10 
10 10 10 10 10 10 10 10 10 
10 8 8 8 8 8 8 8 8 
8 8 8 8 8 8 9 9 9 
9 9 9 9 9 9 9 9 9 
9 9 9 9 9 9 9 9 9 
9 9 9 9 9 9 9 9 9 
9 9 9 9 9 9 9 9 10 
10 10 10 10 10 10 10 10 10 
10 10 10 10 10 10 10 10 10 
10 10 10 10 10 10 10 10 10 
10 10 10 10 10 10 10 10 10 
10 10 10 10 10 10 10 8 8 
8 8 8 8 8 8 8 9 9 
9 9 9 9 9 9 9 9 9 
9 9 9 9 9 9 9 9 9 
9 9 9 9 9 9 9 9 9 
10 10 10 10 10 10 10 10 10 
10 10 10 10 10 10 10 10 10 
10 10 10 10 10 10 10 10 10 
10 10 10 10 10 10 10 10 10 
10 8 8 8 8 8 8 8 8 
8 8 8 8 8 8 8 9 9 
9 9 9 9 9 9 9 9 9 
9 9 9 9 9 9 9 9 9 
9 9 9 9 9 9 9 9 9 
9 9 9 9 9 9 9 10 10 
10 10 10 10 10 10 10 10 10 
10 10 10 10 10 10 10 10 10 
10 10 10 10 10 10 10 10 10 
10 10 10 10 10 10 10 10 10 
10 10 10 10 10 10 10 8 8 
8 8 8 8 8 8 8 8 8 
8 8 8 8 8 8 9 9 9 
9 9 9 9 9 9 9 9 9 
9 9 9 9 9 9 9 9 9 
9 9 9 9 9 9 9 9 9 
9 9 9 10 10 10 10 10 10 
10 10 10 10 10 10 10 10 10 
10 10 10 10 10 10 10 10 10 
10 10 10 10 10 10 10 10 10 
10 10 10 10 10 10 10 10 8 
8 8 8 8 8 8 8 8 8 
8 8 8 8 8 8 9 9 9 
9 9 9 9 9 9 9 9 9 
9 9 9 9 9 9 9 9 9 
9 9 9 9 9 9 9 9 9 
10 10 10 10 10 10 10 10 10 
10 10 10 10 10 10 10 10 10 
10 10 10 10 10 10 10 10 10 
10 10 10 10 10 10 10 10 10 
10 10 10 10 10 10 10 10 10 
8 8 8 8 8 8 8 8 8 
8 8 8 8 8 8 8 8 8 
9 9 9 9 9 9 9 9 9 
9 9 9 9 9 9 9 9 9 
9 9 9 9 9 9 9 9 9 
9 9 9 9 9 9 9 9 9 
9 9 9 9 9 10 10 10 10 
10 10 10 10 10 10 10 10 10 
10 10 10 10 10 10 10 10 10 
10 10 10 10 10 10 10 10 10 
10 10 10 10 10 10 10 10 10 
10 10 10 10 10 10 10 10 8 
8 8 8 8 8 8 8 8 8 
8 8 8 8 8 8 9 9 9 
9 9 9 9 9 9 9 9 9 
9 9 9 9 9 9 9 9 9 
9 9 9 9 9 9 9 9 9 
9 9 9 9 10 10 10 10 10 
10 10 10 10 10 10 10 10 10 
10 10 10 10 10 10 10 10 10 
10 10 10 10 10 10 10 10 10 
10 10 10 10 10 10 10 10 10 
10 10 10 10 10 10 8 8 8 
8 8 8 8 8 8 8 8 8 
8 8 8 8 8 8 8 8 8 
8 8 9 9 9 9 9 9 9 
9 9 9 9 9 9 9 9 9 
9 9 9 9 9 9 9 9 9 
9 9 9 9 9 9 9 9 9 
9 10 10 10 10 10 10 10 10 
10 10 10 10 10 10 10 10 10 
10 10 10 10 10 10 10 10 10 
10 10 10 10 10 10 10 10 10 
10 10 10 10 10 10 10 10 10 
10 10 11 11 11 11 11 11 11 
11 11 11 11 11 8 8 8 8 
8 8 8 8 8 8 8 8 8 
8 8 9 9 9 9 9 9 9 
9 9 9 9 9 9 9 9 9 
9 9 9 9 9 9 9 9 9 
9 9 9 9 9 9 9 9 9 
9 9 9 9 9 10 10 10 10 
10 10 10 10 10 10 10 10 10 
10 10 10 10 10 10 10 10 10 
10 10 10 10 10 10 10 10 10 
10 10 10 10 10 10 10 10 10 
10 10 10 10 10 10 11 11 11 
11 11 11 11 11 8 8 8 8 
8 8 8 8 8 8 8 8 8 
8 8 8 8 8 8 8 9 9 
9 9 9 9 9 9 9 9 9 
9 9 9 9 9 9 9 9 9 
9 9 9 9 9 9 9 9 9 
9 9 9 9 9 9 9 9 10 
10 10 10 10 10 10 10 10 10 
10 10 10 10 10 10 10 10 10 
10 10 10 10 10 10 10 10 10 
10 10 10 10 10 10 10 10 10 
10 10 10 10 10 10 10 10 11 
11 11 11 11 11 11 11 11 11 
11 11 11 11 8 8 8 8 8 
8 8 8 8 8 8 8 8 8 
8 8 8 8 8 9 9 9 9 
9 9 9 9 9 9 9 9 9 
9 9 9 9 9 9 9 9 9 
9 9 9 9 9 9 9 10 10 
10 10 10 10 10 10 10 10 10 
10 10 10 10 10 10 10 10 10 
10 10 10 10 10 10 10 10 10 
10 10 10 10 10 10 10 10 10 
10 10 10 10 10 10 10 10 11 
11 11 11 11 11 11 11 11 11 
11 11 8 8 8 8 8 8 8 
8 8 8 8 8 8 8 8 8 
8 8 8 8 9 9 9 9 9 
9 9 9 9 9 9 9 9 9 
9 9 9 9 9 9 9 9 9 
9 9 9 9 9 9 9 9 9 
9 10 10 10 10 10 10 10 10 
10 10 10 10 10 10 10 10 10 
10 10 10 10 10 10 10 10 10 
10 10 10 10 10 10 10 10 10 
10 10 10 10 10 10 10 10 10 
11 11 11 11 11 11 11 11 11 
11 11 11 8 8 8 8 8 8 
8 8 8 8 8 8 8 8 8 
8 8 8 8 9 9 9 9 9 
9 9 9 9 9 9 9 9 9 
9 9 9 9 9 9 9 9 9 
9 9 9 9 9 9 9 9 9 
9 9 10 10 10 10 10 10 10 
10 10 10 10 10 10 10 10 10 
10 10 10 10 10 10 10 10 10 
10 10 10 10 10 10 10 10 10 
10 10 10 10 10 10 10 10 10 
10 10 10 10 10 10 11 11 11 
11 11 11 11 11 11 11 11 11 
11 8 8 8 8 8 8 8 8 
8 8 8 8 8 8 8 8 8 
8 8 8 8 8 8 8 8 9 
9 9 9 9 9 9 9 9 9 
9 9 9 9 9 9 9 9 9 
9 9 9 9 9 9 9 9 9 
10 10 10 10 10 10 10 10 10 
10 10 10 10 10 10 10 10 10 
10 10 10 10 10 10 10 10 10 
10 10 10 10 10 10 10 10 10 
10 10 10 10 11 11 11 11 11 
11 11 11 11 11 11 11 11 11 
11 8 8 8 8 8 8 8 8 
8 8 8 8 8 8 8 8 8 
8 8 8 9 9 9 9 9 9 
9 9 9 9 9 9 9 9 9 
9 9 9 9 9 9 9 9 9 
9 9 9 9 9 9 9 9 9 
10 10 10 10 10 10 10 10 10 
10 10 10 10 10 10 10 10 10 
10 10 10 10 10 10 10 10 10 
10 10 10 10 10 10 10 10 10 
10 10 10 10 10 10 10 10 10 
10 10 11 11 11 11 11 11 11 
11 11 11 11 11 11 11 11 11 
11 11 8 8 8 8 8 8 8 
8 8 8 8 8 8 8 8 8 
8 8 8 8 8 8 8 8 8 
8 8 8 8 8 8 8 8 8 
9 9 9 9 9 9 9 9 9 
9 9 9 9 9 9 9 9 9 
9 9 9 9 9 9 9 9 9 
9 9 9 9 9 10 10 10 10 
10 10 10 10 10 10 10 10 10 
10 10 10 10 10 10 10 10 10 
10 10 10 10 10 10 10 10 10 
10 10 10 10 10 10 10 10 11 
11 11 11 11 11 11 11 11 11 
11 11 11 11 11 11 8 8 8 
8 8 8 8 8 8 8 8 8 
8 8 8 8 8 8 8 8 8 
8 8 8 8 8 8 9 9 9 
9 9 9 9 9 9 9 9 9 
9 9 9 9 9 9 9 9 9 
9 9 9 9 9 9 9 9 9 
9 9 9 9 9 10 10 10 10 
10 10 10 10 10 10 10 10 10 
10 10 10 10 10 10 10 10 10 
10 10 10 10 10 10 10 10 11 
11 10 10 11 11 11 11 11 11 
11 11 11 11 11 11 11 11 11 
11 11 11 8 8 8 8 8 8 
8 8 8 8 8 8 8 8 8 
8 8 8 8 8 8 8 8 9 
9 9 9 9 9 9 9 9 9 
9 9 9 9 9 9 9 9 9 
9 9 9 9 9 9 9 9 9 
9 10 10 10 10 10 10 10 10 
10 10 10 10 10 10 10 10 10 
10 10 10 10 10 10 10 10 10 
10 10 10 10 10 10 10 10 10 
10 10 10 10 10 10 11 11 11 
11 11 11 11 11 11 11 11 11 
11 11 11 11 11 11 11 11 11 
11 11 8 8 8 8 8 8 8 
8 8 8 8 8 8 8 8 8 
8 8 8 8 8 8 8 8 9 
9 9 9 9 9 9 9 9 9 
9 9 9 9 9 9 9 9 9 
9 9 9 9 9 9 9 9 9 
9 9 9 9 9 9 9 9 10 
10 10 10 10 10 10 10 10 10 
10 10 10 10 10 10 10 10 10 
10 10 10 10 10 10 10 10 10 
10 10 10 10 10 10 10 10 10 
10 10 10 10 11 11 11 11 11 
11 11 11 11 11 11 11 11 11 
11 11 11 11 11 11 11 11 8 
8 8 8 8 8 8 8 8 8 
8 8 8 8 8 8 8 8 8 
8 8 8 8 8 8 8 8 8 
8 8 8 8 8 9 9 9 9 
9 9 9 9 9 9 9 9 9 
9 9 9 9 9 9 9 9 9 
9 9 9 9 9 9 9 9 9 
9 9 9 9 9 10 10 10 10 
10 10 10 10 10 10 10 10 10 
10 10 10 10 10 10 10 10 10 
10 10 10 10 10 10 10 10 10 
10 10 10 10 11 11 11 11 11 
11 11 11 11 11 11 11 11 11 
11 11 11 11 11 11 11 8 8 
8 8 8 8 8 8 8 8 8 
8 8 8 8 8 8 8 8 8 
8 8 8 8 8 8 8 8 8 
9 9 9 9 9 9 9 9 9 
9 9 9 9 9 9 9 9 9 
9 9 9 9 9 9 9 9 9 
9 9 9 9 9 10 10 10 10 
10 10 10 10 10 10 10 10 10 
10 10 10 10 10 10 10 10 10 
10 10 10 10 10 10 10 10 10 
10 10 10 10 10 10 10 10 11 
11 11 11 11 11 11 11 11 11 
11 11 11 11 11 11 11 11 11 
11 11 11 11 11 11 11 11 11 
11 11 11 7 7 7 8 8 8 
8 8 8 8 8 8 8 8 8 
8 8 8 8 8 8 8 8 8 
8 8 8 8 8 8 8 8 8 
9 9 9 9 9 9 9 9 9 
9 9 9 9 9 9 9 9 9 
9 9 9 9 9 9 9 9 9 
9 9 9 10 10 10 10 10 10 
10 10 10 10 10 10 10 10 10 
10 10 10 10 10 10 10 10 10 
10 10 10 10 10 10 10 10 11 
11 11 11 11 11 11 11 11 11 
11 11 11 11 11 11 11 11 11 
11 11 7 7 7 7 7 7 7 
8 8 8 8 8 8 8 8 8 
8 8 8 8 8 8 8 8 8 
8 8 8 8 8 8 8 8 8 
8 8 8 8 8 9 9 9 9 
9 9 9 9 9 9 9 9 9 
9 9 9 9 9 9 9 9 9 
9 9 9 9 9 9 9 9 9 
9 10 10 10 10 10 10 10 10 
10 10 10 10 10 10 10 10 10 
10 10 10 10 10 10 10 10 10 
10 10 10 10 10 10 11 11 11 
11 11 11 11 11 11 11 11 11 
11 11 11 11 11 11 11 11 11 
11 11 11 7 7 8 8 8 8 
8 8 8 8 8 8 8 8 8 
8 8 8 8 8 8 8 8 8 
8 8 8 8 8 8 8 8 8 
8 9 9 9 9 9 9 9 9 
9 9 9 9 9 9 9 9 9 
9 9 9 9 9 9 9 9 9 
9 10 10 10 10 10 10 10 10 
10 10 10 10 10 10 10 10 10 
10 10 10 10 10 10 10 10 10 
10 10 11 11 11 11 11 11 11 
11 11 11 11 11 11 11 11 11 
11 11 11 11 11 11 11 11 7 
7 7 7 7 7 7 7 8 8 
8 8 8 8 8 8 8 8 8 
8 8 8 8 8 8 8 8 8 
8 8 8 8 8 8 8 8 8 
8 9 9 9 9 9 9 9 9 
9 9 9 9 9 9 9 9 9 
9 9 9 9 9 9 9 9 9 
9 9 9 10 10 10 10 10 10 
10 10 10 10 10 10 10 10 10 
10 10 10 10 10 10 10 10 10 
10 10 10 10 10 11 11 11 11 
11 11 11 11 11 11 11 11 11 
11 11 11 11 11 11 11 11 11 
11 11 11 11 11 7 7 7 7 
8 8 8 8 8 8 8 8 8 
8 8 8 8 8 8 8 8 8 
8 8 8 8 8 8 8 8 8 
8 9 9 9 9 9 9 9 9 
9 9 9 9 9 9 9 9 9 
9 10 10 10 10 10 10 10 10 
10 10 10 10 10 10 10 10 10 
10 10 10 11 11 11 11 11 11 
11 11 11 11 11 11 11 11 11 
11 11 11 11 11 11 11 11 11 
11 11 7 7 7 7 7 7 8 
8 8 8 8 8 8 8 8 8 
8 8 8 8 8 8 8 8 8 
8 8 8 8 8 8 8 8 8 
8 8 9 9 9 9 9 9 9 
9 9 9 9 9 9 9 9 9 
9 10 10 10 10 10 10 10 10 
10 10 10 10 10 10 10 10 10 
10 10 10 10 10 10 10 10 11 
11 11 11 11 11 11 11 11 11 
11 11 11 11 11 11 11 11 11 
11 11 11 11 11 7 7 7 7 
7 7 7 8 8 8 8 8 8 
8 8 8 8 8 8 8 8 8 
8 8 8 8 8 8 8 8 8 
8 8 8 8 8 8 9 9 9 
9 9 9 9 9 9 9 9 9 
9 9 10 10 10 10 10 10 10 
10 10 10 10 10 10 10 10 10 
10 10 10 10 10 10 10 11 11 
11 11 11 11 11 11 11 11 11 
11 11 11 11 11 11 11 11 11 
11 11 11 11 11 7 7 7 7 
7 7 7 8 8 8 8 8 8 
8 8 8 8 8 8 8 8 8 
8 8 8 8 8 8 8 8 8 
8 8 8 8 8 8 8 8 8 
9 9 9 9 9 9 9 9 9 
9 9 9 9 9 9 9 10 10 
10 10 10 10 10 10 10 10 10 
10 10 10 10 10 10 10 10 10 
10 10 10 10 10 10 10 10 11 
11 11 11 11 11 11 11 11 11 
11 11 11 11 11 11 11 11 11 
11 11 7 7 7 7 7 7 8 
8 8 8 8 8 8 8 8 8 
8 8 8 8 8 8 8 8 8 
8 8 8 8 8 8 8 8 8 
8 8 8 8 8 8 8 8 9 
9 9 9 9 9 9 9 9 9 
9 9 9 9 10 10 10 10 10 
10 10 10 10 10 10 10 10 10 
10 10 10 10 10 10 10 10 10 
10 10 11 11 11 11 11 11 11 
11 11 11 11 11 11 11 11 11 
11 11 11 11 11 11 11 11 11 
11 11 11 11 11 11 12 12 12 
12 12 12 7 7 7 7 7 7 
7 8 8 8 8 8 8 8 8 
8 8 8 8 8 8 8 8 8 
8 8 8 8 8 8 8 8 8 
8 8 8 8 8 8 8 9 9 
9 9 9 9 9 9 9 9 10 
10 10 10 10 10 10 10 10 10 
10 10 10 10 10 10 10 10 10 
10 10 10 10 10 10 10 11 11 
11 11 11 11 11 11 11 11 11 
11 11 11 11 11 11 11 11 11 
12 12 12 12 12 12 12 7 7 
7 7 7 7 7 8 8 8 8 
8 8 8 8 8 8 8 8 8 
8 8 8 8 8 8 8 8 8 
8 8 8 8 8 8 8 8 8 
8 8 8 8 8 8 9 9 9 
9 9 9 9 9 9 9 10 10 
10 10 10 10 10 10 10 10 10 
10 10 10 10 10 10 10 10 10 
10 10 10 10 11 11 11 11 11 
11 11 11 11 11 11 11 11 11 
11 11 11 11 11 11 11 11 11 
11 11 11 11 11 11 11 11 11 
11 11 11 12 12 12 12 12 12 
12 12 12 12 12 7 7 7 7 
7 7 7 7 7 7 7 8 8 
8 8 8 8 8 8 8 8 8 
8 8 8 8 8 8 8 8 8 
8 8 8 8 8 8 8 8 8 
8 8 8 9 9 9 9 10 10 
10 10 10 10 10 10 10 10 10 
10 10 10 10 10 10 10 10 10 
10 10 10 10 11 11 11 11 11 
11 11 11 11 11 11 11 11 11 
11 11 11 11 11 11 11 11 11 
12 12 12 12 12 12 12 12 12 
12 12 12 12 7 7 7 7 7 
7 7 7 7 8 8 8 8 8 
8 8 8 8 8 8 8 8 8 
8 8 8 8 8 8 8 8 8 
8 8 8 8 8 8 8 8 8 
8 8 8 8 8 9 9 9 9 
9 9 9 9 9 10 10 10 10 
10 10 10 10 10 10 10 10 10 
10 10 10 10 10 10 10 10 11 
11 11 11 11 11 11 11 11 11 
11 11 11 11 11 11 11 11 11 
11 11 11 11 11 11 11 11 12 
12 12 12 12 12 12 12 12 7 
7 7 7 7 7 7 7 7 7 
7 7 7 7 7 8 8 8 8 
8 8 8 8 8 8 8 8 8 
8 8 8 8 8 8 8 8 8 
8 8 8 8 8 8 8 8 8 
8 8 8 8 8 8 8 9 9 
9 9 9 10 10 10 10 10 10 
10 10 10 10 10 10 10 10 10 
10 10 10 10 10 10 10 11 11 
11 11 11 11 11 11 11 11 11 
11 11 11 11 11 11 11 11 11 
11 11 11 11 11 11 11 11 11 
12 12 12 12 12 12 12 12 12 
12 7 7 7 7 7 7 7 7 
7 7 7 8 8 8 8 8 8 
8 8 8 8 8 8 8 8 8 
8 8 8 8 8 8 8 8 8 
8 8 8 8 8 8 9 9 9 
9 10 10 10 10 10 10 10 10 
10 10 10 10 10 10 10 10 10 
10 10 10 10 10 11 11 11 11 
11 11 11 11 11 11 11 11 11 
11 11 11 11 11 11 11 11 11 
11 11 11 11 11 11 11 11 12 
12 12 12 12 12 12 12 7 7 
7 7 7 7 7 7 7 7 7 
8 8 8 8 8 8 8 8 8 
8 8 8 8 8 8 8 8 8 
8 8 8 8 8 8 8 8 8 
8 8 9 10 10 10 10 10 10 
10 10 10 10 10 10 10 10 10 
10 10 10 10 10 10 11 11 11 
11 11 11 11 11 11 11 11 11 
11 11 11 11 11 11 11 11 11 
11 11 11 11 11 11 11 11 11 
11 12 12 12 12 12 12 12 12 
12 12 12 12 12 7 7 7 7 
7 7 7 7 7 7 7 7 8 
8 8 8 8 8 8 8 8 8 
8 8 8 8 8 8 8 8 8 
8 8 10 10 10 10 10 10 10 
10 10 10 10 10 10 10 10 10 
10 10 10 10 11 11 11 11 11 
11 11 11 11 11 11 11 11 11 
11 11 11 11 11 11 11 11 11 
11 11 11 11 11 11 11 11 11 
11 12 12 12 12 12 12 12 12 
12 12 12 12 12 12 7 7 7 
7 7 7 7 7 7 7 7 7 
7 8 8 8 8 8 8 8 8 
8 8 8 8 8 8 8 8 8 
8 8 8 8 8 8 9 10 10 
10 10 10 10 10 10 10 10 10 
10 10 10 11 11 11 11 11 11 
11 11 11 11 11 11 11 11 11 
11 11 11 11 11 11 11 11 11 
11 11 11 11 11 11 11 12 12 
12 12 12 12 12 12 12 12 12 
12 12 12 12 12 12 7 7 7 
7 7 7 7 7 7 7 7 7 
7 7 7 8 8 8 8 8 8 
8 8 8 8 8 8 8 8 8 
8 8 8 8 8 8 8 8 8 
8 8 10 10 10 10 10 10 10 
10 10 10 10 10 10 10 10 11 
11 11 11 11 11 11 11 11 11 
11 11 11 11 11 11 11 11 11 
11 11 11 11 11 11 11 11 11 
11 11 11 11 11 11 12 12 12 
12 12 12 12 12 12 12 12 12 
12 12 12 7 7 7 7 7 7 
7 7 7 7 7 7 7 7 7 
8 8 8 8 8 8 8 8 8 
8 8 8 8 8 8 8 8 8 
8 8 8 8 8 8 8 10 10 
10 10 10 10 10 10 10 10 10 
10 10 10 11 11 11 11 11 11 
11 11 11 11 11 11 11 11 11 
11 11 11 11 11 11 11 11 11 
11 11 11 11 11 11 11 11 11 
11 11 12 12 12 12 12 12 12 